3
MD Step 0 Units = [Angstroms / fs]
C  0.00447692 0.00447856 0.00447773
O  0.00388017 0.00388095 0.00388018
O  0.00387996 0.00387933 0.00387969