3
MD Step 0.0 Units = [eV / Ang.]
C  -0.00000000 -0.00000000 -0.00000000
O  0.00000000 -0.00000000 0.00938457
O  0.00000000 0.00000000 -0.00938457
3
MD Step 0.5 Units = [eV / Ang.]
C  -0.00000000 -0.00000000 -2.06036716
O  0.00000000 0.00000000 4.92367686
O  -0.00000000 0.00000000 -2.86330970
3
MD Step 1.0 Units = [eV / Ang.]
C  0.00000000 -0.00000000 -3.05901593
O  0.00000000 0.00000000 8.28100292
O  -0.00000000 0.00000000 -5.22198700
3
MD Step 1.5 Units = [eV / Ang.]
C  0.00000000 0.00000000 -3.35455864
O  -0.00000000 0.00000000 10.51183482
O  -0.00000000 -0.00000000 -7.15727618
3
MD Step 2.0 Units = [eV / Ang.]
C  0.00000000 -0.00000000 -3.22455390
O  -0.00000000 0.00000000 11.95263767
O  -0.00000000 0.00000000 -8.72808377
3
MD Step 2.5 Units = [eV / Ang.]
C  -0.00000000 0.00000000 -2.85831971
O  0.00000000 0.00000000 12.84663358
O  -0.00000000 -0.00000000 -9.98831387
3
MD Step 3.0 Units = [eV / Ang.]
C  -0.00000000 -0.00000000 -2.37728921
O  0.00000000 -0.00000000 13.36491802
O  -0.00000000 0.00000000 -10.98762882
3
MD Step 3.5 Units = [eV / Ang.]
C  0.00000000 -0.00000000 -1.85393589
O  0.00000000 -0.00000000 13.62555529
O  -0.00000000 0.00000000 -11.77161940
3
MD Step 4.0 Units = [eV / Ang.]
C  0.00000000 -0.00000000 -1.33041719
O  -0.00000000 0.00000000 13.71018023
O  -0.00000000 0.00000000 -12.37976304
3
MD Step 4.5 Units = [eV / Ang.]
C  -0.00000000 -0.00000000 -0.82871862
O  -0.00000000 -0.00000000 13.67511606
O  0.00000000 0.00000000 -12.84639744
3
MD Step 5.0 Units = [eV / Ang.]
C  -0.00000000 -0.00000000 -0.35863312
O  0.00000000 -0.00000000 13.55964646
O  0.00000000 0.00000000 -13.20101334
3
MD Step 5.5 Units = [eV / Ang.]
C  -0.00000000 0.00000000 0.07665448
O  0.00000000 0.00000000 13.39101536
O  0.00000000 -0.00000000 -13.46766984
3
MD Step 6.0 Units = [eV / Ang.]
C  0.00000000 0.00000000 0.47820968
O  -0.00000000 -0.00000000 13.18852753
O  -0.00000000 -0.00000000 -13.66673721
3
MD Step 6.5 Units = [eV / Ang.]
C  0.00000000 0.00000000 0.84821922
O  -0.00000000 -0.00000000 12.96576205
O  0.00000000 0.00000000 -13.81398127
3
MD Step 7.0 Units = [eV / Ang.]
C  -0.00000000 0.00000000 1.19005793
O  -0.00000000 0.00000000 12.73211234
O  0.00000000 -0.00000000 -13.92217027
3
MD Step 7.5 Units = [eV / Ang.]
C  0.00000000 0.00000000 1.50655381
O  0.00000000 0.00000000 12.49408757
O  -0.00000000 -0.00000000 -14.00064139
3
MD Step 8.0 Units = [eV / Ang.]
C  0.00000000 0.00000000 1.79976426
O  0.00000000 -0.00000000 12.25646804
O  -0.00000000 -0.00000000 -14.05623230
3
MD Step 8.5 Units = [eV / Ang.]
C  -0.00000000 0.00000000 2.07064628
O  -0.00000000 -0.00000000 12.02250850
O  0.00000000 -0.00000000 -14.09315478
3
MD Step 9.0 Units = [eV / Ang.]
C  0.00000000 -0.00000000 2.31862386
O  -0.00000000 0.00000000 11.79436546
O  -0.00000000 0.00000000 -14.11298932
3
MD Step 9.5 Units = [eV / Ang.]
C  0.00000000 -0.00000000 2.54195604
O  0.00000000 0.00000000 11.57288301
O  -0.00000000 0.00000000 -14.11483905
3
MD Step 10.0 Units = [eV / Ang.]
C  -0.00000000 -0.00000000 2.73590132
O  0.00000000 0.00000000 11.35892599
O  0.00000000 0.00000000 -14.09482732
3
MD Step 10.5 Units = [eV / Ang.]
C  0.00000000 -0.00000000 2.89368949
O  0.00000000 -0.00000000 11.15215386
O  -0.00000000 0.00000000 -14.04584335
3
MD Step 11.0 Units = [eV / Ang.]
C  -0.00000000 -0.00000000 3.00424694
O  0.00000000 0.00000000 10.95241451
O  0.00000000 -0.00000000 -13.95666145
3
MD Step 11.5 Units = [eV / Ang.]
C  0.00000000 -0.00000000 3.05292313
O  0.00000000 -0.00000000 10.75863376
O  -0.00000000 0.00000000 -13.81155690
3
MD Step 12.0 Units = [eV / Ang.]
C  0.00000000 0.00000000 3.01811953
O  -0.00000000 0.00000000 10.57000443
O  -0.00000000 -0.00000000 -13.58812397
3
MD Step 12.5 Units = [eV / Ang.]
C  0.00000000 0.00000000 2.87068454
O  -0.00000000 0.00000000 10.38547610
O  0.00000000 -0.00000000 -13.25616064
3
MD Step 13.0 Units = [eV / Ang.]
C  0.00000000 0.00000000 2.57205423
O  -0.00000000 -0.00000000 10.20394326
O  0.00000000 -0.00000000 -12.77599749
3
MD Step 13.5 Units = [eV / Ang.]
C  0.00000000 -0.00000000 2.06994179
O  0.00000000 -0.00000000 10.02497825
O  -0.00000000 0.00000000 -12.09492004
3
MD Step 14.0 Units = [eV / Ang.]
C  -0.00000000 -0.00000000 1.29737668
O  -0.00000000 -0.00000000 9.84828848
O  0.00000000 0.00000000 -11.14566516
3
MD Step 14.5 Units = [eV / Ang.]
C  0.00000000 -0.00000000 0.17021201
O  -0.00000000 0.00000000 9.67498621
O  -0.00000000 0.00000000 -9.84519822
3
MD Step 15.0 Units = [eV / Ang.]
C  -0.00000000 -0.00000000 -1.41092554
O  -0.00000000 0.00000000 9.50807267
O  0.00000000 0.00000000 -8.09714712
3
MD Step 15.5 Units = [eV / Ang.]
C  0.00000000 -0.00000000 -3.55399139
O  0.00000000 -0.00000000 9.35348420
O  -0.00000000 0.00000000 -5.79949281
3
MD Step 16.0 Units = [eV / Ang.]
C  -0.00000000 -0.00000000 -6.35331953
O  -0.00000000 -0.00000000 9.22089712
O  0.00000000 0.00000000 -2.86757760
3
MD Step 16.5 Units = [eV / Ang.]
C  -0.00000000 -0.00000000 -9.84563260
O  0.00000000 -0.00000000 9.12532414
O  0.00000000 0.00000000 0.72030845
3
MD Step 17.0 Units = [eV / Ang.]
C  0.00000000 -0.00000000 -13.95493346
O  0.00000000 0.00000000 9.08605211
O  -0.00000000 0.00000000 4.86888135
3
MD Step 17.5 Units = [eV / Ang.]
C  0.00000000 0.00000000 -18.41000247
O  0.00000000 0.00000000 9.12768017
O  -0.00000000 -0.00000000 9.28232231
3
MD Step 18.0 Units = [eV / Ang.]
C  -0.00000000 0.00000000 -22.71390936
O  -0.00000000 0.00000000 9.27638951
O  0.00000000 -0.00000000 13.43751986
3
MD Step 18.5 Units = [eV / Ang.]
C  -0.00000000 0.00000000 -26.19990881
O  0.00000000 -0.00000000 9.55621788
O  0.00000000 -0.00000000 16.64369092
3
MD Step 19.0 Units = [eV / Ang.]
C  0.00000000 0.00000000 -28.21604549
O  0.00000000 -0.00000000 9.98475440
O  -0.00000000 -0.00000000 18.23129109
3
MD Step 19.5 Units = [eV / Ang.]
C  -0.00000000 -0.00000000 -28.39723587
O  0.00000000 0.00000000 10.56203383
O  0.00000000 0.00000000 17.83520204
3
MD Step 20.0 Units = [eV / Ang.]
C  -0.00000000 0.00000000 -26.79802511
O  0.00000000 0.00000000 11.25583302
O  0.00000000 -0.00000000 15.54219209
3
MD Step 20.5 Units = [eV / Ang.]
C  0.00000000 -0.00000000 -23.85589563
O  -0.00000000 -0.00000000 11.99251691
O  -0.00000000 0.00000000 11.86337872
3
MD Step 21.0 Units = [eV / Ang.]
C  -0.00000000 -0.00000000 -20.15080028
O  0.00000000 -0.00000000 12.65548103
O  0.00000000 0.00000000 7.49531926
3
MD Step 21.5 Units = [eV / Ang.]
C  0.00000000 0.00000000 -16.16577809
O  0.00000000 -0.00000000 13.08268524
O  -0.00000000 0.00000000 3.08309284
3
MD Step 22.0 Units = [eV / Ang.]
C  0.00000000 -0.00000000 -12.13086252
O  -0.00000000 0.00000000 13.05074073
O  -0.00000000 0.00000000 -0.91987822
3
MD Step 22.5 Units = [eV / Ang.]
C  0.00000000 0.00000000 -7.95729067
O  0.00000000 -0.00000000 12.22855102
O  -0.00000000 0.00000000 -4.27126035
3
MD Step 23.0 Units = [eV / Ang.]
C  0.00000000 -0.00000000 -3.19931580
O  0.00000000 0.00000000 10.09259417
O  -0.00000000 0.00000000 -6.89327837
3
MD Step 23.5 Units = [eV / Ang.]
C  -0.00000000 0.00000000 2.99735794
O  0.00000000 -0.00000000 5.80782605
O  -0.00000000 -0.00000000 -8.80518399
3
MD Step 24.0 Units = [eV / Ang.]
C  0.00000000 -0.00000000 11.93332309
O  -0.00000000 0.00000000 -1.86531440
O  -0.00000000 -0.00000000 -10.06800869
3
MD Step 24.5 Units = [eV / Ang.]
C  0.00000000 -0.00000000 25.18620005
O  -0.00000000 0.00000000 -14.42568685
O  -0.00000000 -0.00000000 -10.76051320
3
MD Step 25.0 Units = [eV / Ang.]
C  -0.00000000 -0.00000000 43.64527036
O  0.00000000 -0.00000000 -32.66877098
O  -0.00000000 0.00000000 -10.97649938
3
MD Step 25.5 Units = [eV / Ang.]
C  -0.00000000 0.00000000 65.23524807
O  0.00000000 0.00000000 -54.38931251
O  -0.00000000 -0.00000000 -10.84593556
3
MD Step 26.0 Units = [eV / Ang.]
C  -0.00000000 -0.00000000 82.56736941
O  0.00000000 -0.00000000 -72.05688186
O  0.00000000 0.00000000 -10.51048755
3
MD Step 26.5 Units = [eV / Ang.]
C  0.00000000 -0.00000000 85.95027933
O  -0.00000000 -0.00000000 -75.94930821
O  -0.00000000 0.00000000 -10.00097113
3
MD Step 27.0 Units = [eV / Ang.]
C  -0.00000000 0.00000000 72.67247218
O  0.00000000 -0.00000000 -63.60899145
O  0.00000000 -0.00000000 -9.06348073
3
MD Step 27.5 Units = [eV / Ang.]
C  0.00000000 -0.00000000 49.81875759
O  -0.00000000 0.00000000 -42.76046580
O  -0.00000000 0.00000000 -7.05829179
3
MD Step 28.0 Units = [eV / Ang.]
C  -0.00000000 -0.00000000 25.75569246
O  0.00000000 0.00000000 -22.77432052
O  0.00000000 0.00000000 -2.98137194
3
MD Step 28.5 Units = [eV / Ang.]
C  -0.00000000 -0.00000000 3.61954473
O  0.00000000 0.00000000 -8.07553875
O  0.00000000 0.00000000 4.45599402
3
MD Step 29.0 Units = [eV / Ang.]
C  0.00000000 0.00000000 -17.73913664
O  -0.00000000 -0.00000000 1.16110983
O  -0.00000000 0.00000000 16.57802681
3
MD Step 29.5 Units = [eV / Ang.]
C  0.00000000 -0.00000000 -40.12792996
O  0.00000000 0.00000000 6.33796564
O  -0.00000000 -0.00000000 33.78996431
3
MD Step 30.0 Units = [eV / Ang.]
C  -0.00000000 -0.00000000 -62.45404832
O  0.00000000 -0.00000000 8.94700805
O  0.00000000 0.00000000 53.50704027
3
MD Step 30.5 Units = [eV / Ang.]
C  0.00000000 0.00000000 -78.74122046
O  0.00000000 0.00000000 10.15810504
O  -0.00000000 -0.00000000 68.58311542
3
MD Step 31.0 Units = [eV / Ang.]
C  -0.00000000 -0.00000000 -81.49429697
O  0.00000000 -0.00000000 10.76798319
O  -0.00000000 0.00000000 70.72631377
3
MD Step 31.5 Units = [eV / Ang.]
C  -0.00000000 -0.00000000 -69.64952113
O  0.00000000 -0.00000000 11.18524302
O  0.00000000 0.00000000 58.46427811
3
MD Step 32.0 Units = [eV / Ang.]
C  0.00000000 -0.00000000 -50.35467396
O  -0.00000000 0.00000000 11.50019410
O  -0.00000000 0.00000000 38.85447985
3
MD Step 32.5 Units = [eV / Ang.]
C  -0.00000000 -0.00000000 -31.70021669
O  -0.00000000 -0.00000000 11.63292962
O  0.00000000 0.00000000 20.06728707
3
MD Step 33.0 Units = [eV / Ang.]
C  0.00000000 0.00000000 -17.46573928
O  -0.00000000 0.00000000 11.47455554
O  0.00000000 -0.00000000 5.99118373
3
MD Step 33.5 Units = [eV / Ang.]
C  0.00000000 -0.00000000 -7.77590214
O  -0.00000000 0.00000000 10.94543473
O  -0.00000000 0.00000000 -3.16953259
3
MD Step 34.0 Units = [eV / Ang.]
C  -0.00000000 -0.00000000 -1.39313580
O  0.00000000 -0.00000000 9.98798280
O  0.00000000 0.00000000 -8.59484700
3
MD Step 34.5 Units = [eV / Ang.]
C  -0.00000000 0.00000000 2.98441104
O  0.00000000 0.00000000 8.54872985
O  0.00000000 -0.00000000 -11.53314089
3
MD Step 35.0 Units = [eV / Ang.]
C  0.00000000 -0.00000000 6.33063922
O  -0.00000000 0.00000000 6.57303126
O  0.00000000 0.00000000 -12.90367049
3
MD Step 35.5 Units = [eV / Ang.]
C  -0.00000000 -0.00000000 9.28200128
O  0.00000000 0.00000000 4.02155089
O  0.00000000 0.00000000 -13.30355217
3
MD Step 36.0 Units = [eV / Ang.]
C  -0.00000000 -0.00000000 12.21217282
O  0.00000000 0.00000000 0.89470390
O  -0.00000000 0.00000000 -13.10687672
3
MD Step 36.5 Units = [eV / Ang.]
C  0.00000000 -0.00000000 15.27211775
O  -0.00000000 0.00000000 -2.72086755
O  -0.00000000 0.00000000 -12.55125021
3
MD Step 37.0 Units = [eV / Ang.]
C  -0.00000000 -0.00000000 18.41109843
O  0.00000000 -0.00000000 -6.61002528
O  0.00000000 0.00000000 -11.80107315
3
MD Step 37.5 Units = [eV / Ang.]
C  0.00000000 0.00000000 21.37502352
O  0.00000000 -0.00000000 -10.39425988
O  -0.00000000 -0.00000000 -10.98076363
3
MD Step 38.0 Units = [eV / Ang.]
C  -0.00000000 0.00000000 23.75360977
O  0.00000000 -0.00000000 -13.56446922
O  0.00000000 0.00000000 -10.18914055
3
MD Step 38.5 Units = [eV / Ang.]
C  -0.00000000 0.00000000 25.07005934
O  0.00000000 -0.00000000 -15.57099024
O  0.00000000 0.00000000 -9.49906910
3
MD Step 39.0 Units = [eV / Ang.]
C  -0.00000000 0.00000000 24.95772585
O  0.00000000 -0.00000000 -16.01014909
O  0.00000000 0.00000000 -8.94757675
3
MD Step 39.5 Units = [eV / Ang.]
C  0.00000000 -0.00000000 23.32760438
O  0.00000000 -0.00000000 -14.78426595
O  -0.00000000 0.00000000 -8.54333843
3
MD Step 40.0 Units = [eV / Ang.]
C  0.00000000 0.00000000 20.43273857
O  -0.00000000 -0.00000000 -12.15599246
O  -0.00000000 -0.00000000 -8.27674611
3
MD Step 40.5 Units = [eV / Ang.]
C  -0.00000000 0.00000000 16.76085040
O  -0.00000000 -0.00000000 -8.63051153
O  0.00000000 -0.00000000 -8.13033887
3
MD Step 41.0 Units = [eV / Ang.]
C  -0.00000000 -0.00000000 12.85824809
O  0.00000000 0.00000000 -4.77600865
O  0.00000000 -0.00000000 -8.08223944
3
MD Step 41.5 Units = [eV / Ang.]
C  -0.00000000 -0.00000000 9.15526022
O  0.00000000 0.00000000 -1.04417051
O  0.00000000 -0.00000000 -8.11108971
3
MD Step 42.0 Units = [eV / Ang.]
C  0.00000000 -0.00000000 5.91791536
O  -0.00000000 0.00000000 2.27791560
O  -0.00000000 -0.00000000 -8.19583097
3
MD Step 42.5 Units = [eV / Ang.]
C  -0.00000000 0.00000000 3.25076189
O  0.00000000 0.00000000 5.06797867
O  -0.00000000 -0.00000000 -8.31874055
3
MD Step 43.0 Units = [eV / Ang.]
C  -0.00000000 0.00000000 1.15169435
O  0.00000000 -0.00000000 7.31352191
O  0.00000000 0.00000000 -8.46521626
3
MD Step 43.5 Units = [eV / Ang.]
C  0.00000000 0.00000000 -0.44356161
O  -0.00000000 -0.00000000 9.06931603
O  0.00000000 -0.00000000 -8.62575442
3
MD Step 44.0 Units = [eV / Ang.]
C  0.00000000 -0.00000000 -1.61761642
O  -0.00000000 0.00000000 10.41040756
O  -0.00000000 -0.00000000 -8.79279114
3
MD Step 44.5 Units = [eV / Ang.]
C  -0.00000000 -0.00000000 -2.45448633
O  0.00000000 0.00000000 11.41675228
O  0.00000000 0.00000000 -8.96226595
3
MD Step 45.0 Units = [eV / Ang.]
C  0.00000000 0.00000000 -3.02853647
O  -0.00000000 -0.00000000 12.16112606
O  0.00000000 -0.00000000 -9.13258959
3
MD Step 45.5 Units = [eV / Ang.]
C  -0.00000000 -0.00000000 -3.40070584
O  -0.00000000 0.00000000 12.70337913
O  0.00000000 0.00000000 -9.30267329
3
MD Step 46.0 Units = [eV / Ang.]
C  -0.00000000 -0.00000000 -3.61884658
O  0.00000000 -0.00000000 13.09166622
O  0.00000000 0.00000000 -9.47281965
3
MD Step 46.5 Units = [eV / Ang.]
C  -0.00000000 0.00000000 -3.71973287
O  0.00000000 -0.00000000 13.36346003
O  0.00000000 0.00000000 -9.64372716
3
MD Step 47.0 Units = [eV / Ang.]
C  0.00000000 -0.00000000 -3.73071668
O  0.00000000 0.00000000 13.54694315
O  -0.00000000 0.00000000 -9.81622647
3
MD Step 47.5 Units = [eV / Ang.]
C  0.00000000 0.00000000 -3.67129882
O  0.00000000 -0.00000000 13.66243872
O  -0.00000000 0.00000000 -9.99113990
3
MD Step 48.0 Units = [eV / Ang.]
C  -0.00000000 -0.00000000 -3.55383078
O  -0.00000000 0.00000000 13.72371187
O  0.00000000 0.00000000 -10.16988109
3
MD Step 48.5 Units = [eV / Ang.]
C  0.00000000 -0.00000000 -3.38678374
O  -0.00000000 0.00000000 13.73977891
O  -0.00000000 0.00000000 -10.35299517
3
MD Step 49.0 Units = [eV / Ang.]
C  0.00000000 0.00000000 -3.17305526
O  -0.00000000 -0.00000000 13.71472302
O  -0.00000000 -0.00000000 -10.54166776
3
MD Step 49.5 Units = [eV / Ang.]
C  -0.00000000 0.00000000 -2.91212766
O  -0.00000000 0.00000000 13.64859598
O  0.00000000 -0.00000000 -10.73646832
3
MD Step 50.0 Units = [eV / Ang.]
C  0.00000000 0.00000000 -2.59940305
O  0.00000000 0.00000000 13.53756474
O  -0.00000000 -0.00000000 -10.93816169
3
MD Step 50.5 Units = [eV / Ang.]
C  -0.00000000 -0.00000000 -2.22626814
O  0.00000000 -0.00000000 13.37379887
O  0.00000000 0.00000000 -11.14753072
3
MD Step 51.0 Units = [eV / Ang.]
C  -0.00000000 -0.00000000 -1.78088180
O  -0.00000000 0.00000000 13.14586802
O  0.00000000 0.00000000 -11.36498621
3
MD Step 51.5 Units = [eV / Ang.]
C  0.00000000 0.00000000 -1.24756829
O  -0.00000000 -0.00000000 12.83760879
O  -0.00000000 -0.00000000 -11.59004050
3
MD Step 52.0 Units = [eV / Ang.]
C  -0.00000000 0.00000000 -0.60653301
O  0.00000000 -0.00000000 12.42891470
O  0.00000000 0.00000000 -11.82238169
3
MD Step 52.5 Units = [eV / Ang.]
C  0.00000000 0.00000000 0.16529025
O  0.00000000 -0.00000000 11.89535567
O  -0.00000000 -0.00000000 -12.06064592
3
MD Step 53.0 Units = [eV / Ang.]
C  -0.00000000 -0.00000000 1.09425455
O  0.00000000 -0.00000000 11.20756280
O  0.00000000 0.00000000 -12.30181735
3
MD Step 53.5 Units = [eV / Ang.]
C  0.00000000 0.00000000 2.20789973
O  0.00000000 -0.00000000 10.33423147
O  -0.00000000 0.00000000 -12.54213120
3
MD Step 54.0 Units = [eV / Ang.]
C  0.00000000 0.00000000 3.53012613
O  0.00000000 -0.00000000 9.24461236
O  -0.00000000 -0.00000000 -12.77473849
3
MD Step 54.5 Units = [eV / Ang.]
C  -0.00000000 0.00000000 5.07797464
O  -0.00000000 -0.00000000 7.91048173
O  0.00000000 -0.00000000 -12.98845637
3
MD Step 55.0 Units = [eV / Ang.]
C  0.00000000 -0.00000000 6.84724881
O  -0.00000000 0.00000000 6.31800480
O  -0.00000000 0.00000000 -13.16525361
3
MD Step 55.5 Units = [eV / Ang.]
C  -0.00000000 0.00000000 8.79909341
O  0.00000000 -0.00000000 4.47627867
O  0.00000000 0.00000000 -13.27537208
3
MD Step 56.0 Units = [eV / Ang.]
C  0.00000000 0.00000000 10.84418313
O  -0.00000000 -0.00000000 2.42537980
O  -0.00000000 0.00000000 -13.26956292
3
MD Step 56.5 Units = [eV / Ang.]
C  -0.00000000 0.00000000 12.81395403
O  0.00000000 -0.00000000 0.25221916
O  0.00000000 0.00000000 -13.06617319
3
MD Step 57.0 Units = [eV / Ang.]
C  -0.00000000 -0.00000000 14.43780443
O  0.00000000 0.00000000 -1.90763252
O  0.00000000 -0.00000000 -12.53017191
3
MD Step 57.5 Units = [eV / Ang.]
C  -0.00000000 0.00000000 15.32491684
O  0.00000000 0.00000000 -3.88662084
O  0.00000000 -0.00000000 -11.43829599
3
MD Step 58.0 Units = [eV / Ang.]
C  -0.00000000 -0.00000000 14.94604994
O  0.00000000 0.00000000 -5.52253747
O  0.00000000 -0.00000000 -9.42351247
3
MD Step 58.5 Units = [eV / Ang.]
C  0.00000000 0.00000000 12.59365184
O  0.00000000 -0.00000000 -6.69814206
O  -0.00000000 0.00000000 -5.89550978
3
MD Step 59.0 Units = [eV / Ang.]
C  -0.00000000 0.00000000 7.35950098
O  0.00000000 -0.00000000 -7.40981568
O  0.00000000 -0.00000000 0.05031470
3
MD Step 59.5 Units = [eV / Ang.]
C  -0.00000000 -0.00000000 -1.84290734
O  0.00000000 0.00000000 -7.80368286
O  0.00000000 0.00000000 9.64659019
3
MD Step 60.0 Units = [eV / Ang.]
C  0.00000000 0.00000000 -15.93292083
O  -0.00000000 -0.00000000 -8.17430825
O  -0.00000000 -0.00000000 24.10722908
3
MD Step 60.5 Units = [eV / Ang.]
C  -0.00000000 0.00000000 -34.47103589
O  -0.00000000 -0.00000000 -8.94890483
O  0.00000000 0.00000000 43.41994072
3
MD Step 61.0 Units = [eV / Ang.]
C  -0.00000000 0.00000000 -53.48196232
O  0.00000000 -0.00000000 -10.65531963
O  0.00000000 -0.00000000 64.13728195
3
MD Step 61.5 Units = [eV / Ang.]
C  -0.00000000 0.00000000 -64.55688055
O  0.00000000 0.00000000 -13.91146832
O  0.00000000 -0.00000000 78.46834887
3
MD Step 62.0 Units = [eV / Ang.]
C  0.00000000 -0.00000000 -59.47372732
O  -0.00000000 0.00000000 -19.46994557
O  0.00000000 -0.00000000 78.94367288
3
MD Step 62.5 Units = [eV / Ang.]
C  0.00000000 -0.00000000 -37.88966735
O  -0.00000000 -0.00000000 -28.06717433
O  -0.00000000 0.00000000 65.95684168
3
MD Step 63.0 Units = [eV / Ang.]
C  -0.00000000 -0.00000000 -7.49324467
O  -0.00000000 -0.00000000 -39.72141603
O  0.00000000 0.00000000 47.21466069
3
MD Step 63.5 Units = [eV / Ang.]
C  0.00000000 -0.00000000 22.42301010
O  0.00000000 -0.00000000 -52.49117285
O  -0.00000000 0.00000000 30.06816275
3
MD Step 64.0 Units = [eV / Ang.]
C  -0.00000000 -0.00000000 44.41726588
O  0.00000000 0.00000000 -61.84925940
O  0.00000000 0.00000000 17.43199352
3
MD Step 64.5 Units = [eV / Ang.]
C  -0.00000000 0.00000000 53.72978473
O  -0.00000000 0.00000000 -62.79105094
O  0.00000000 -0.00000000 9.06126621
3
MD Step 65.0 Units = [eV / Ang.]
C  -0.00000000 0.00000000 50.25727446
O  0.00000000 -0.00000000 -53.97524605
O  0.00000000 0.00000000 3.71797159
3
MD Step 65.5 Units = [eV / Ang.]
C  -0.00000000 -0.00000000 38.78663277
O  -0.00000000 0.00000000 -39.08764090
O  0.00000000 0.00000000 0.30100812
3
MD Step 66.0 Units = [eV / Ang.]
C  0.00000000 0.00000000 25.37530904
O  0.00000000 -0.00000000 -23.44240840
O  -0.00000000 0.00000000 -1.93290064
3
MD Step 66.5 Units = [eV / Ang.]
C  0.00000000 0.00000000 13.89078067
O  -0.00000000 -0.00000000 -10.44616939
O  -0.00000000 0.00000000 -3.44461128
3
MD Step 67.0 Units = [eV / Ang.]
C  -0.00000000 0.00000000 5.56203740
O  0.00000000 -0.00000000 -1.04360747
O  -0.00000000 0.00000000 -4.51842993
3
MD Step 67.5 Units = [eV / Ang.]
C  0.00000000 -0.00000000 0.13148436
O  -0.00000000 0.00000000 5.20338557
O  -0.00000000 0.00000000 -5.33486992
3
MD Step 68.0 Units = [eV / Ang.]
C  -0.00000000 0.00000000 -3.11093694
O  0.00000000 0.00000000 9.11400433
O  0.00000000 -0.00000000 -6.00306738
3
MD Step 68.5 Units = [eV / Ang.]
C  -0.00000000 0.00000000 -4.84307718
O  0.00000000 0.00000000 11.43209738
O  0.00000000 -0.00000000 -6.58902020
3
MD Step 69.0 Units = [eV / Ang.]
C  0.00000000 0.00000000 -5.58107234
O  -0.00000000 0.00000000 12.70668271
O  -0.00000000 -0.00000000 -7.12561037
3
MD Step 69.5 Units = [eV / Ang.]
C  0.00000000 0.00000000 -5.68079642
O  0.00000000 0.00000000 13.30960628
O  -0.00000000 -0.00000000 -7.62880985
3
MD Step 70.0 Units = [eV / Ang.]
C  0.00000000 0.00000000 -5.38162415
O  0.00000000 -0.00000000 13.48349826
O  -0.00000000 -0.00000000 -8.10187411
3
MD Step 70.5 Units = [eV / Ang.]
C  -0.00000000 0.00000000 -4.84225487
O  -0.00000000 -0.00000000 13.38516317
O  0.00000000 -0.00000000 -8.54290830
3
MD Step 71.0 Units = [eV / Ang.]
C  0.00000000 -0.00000000 -4.16991448
O  -0.00000000 -0.00000000 13.11522901
O  -0.00000000 0.00000000 -8.94531453
3
MD Step 71.5 Units = [eV / Ang.]
C  0.00000000 0.00000000 -3.43431338
O  -0.00000000 -0.00000000 12.73895781
O  -0.00000000 -0.00000000 -9.30464444
3
MD Step 72.0 Units = [eV / Ang.]
C  0.00000000 -0.00000000 -2.68329286
O  0.00000000 -0.00000000 12.29786966
O  -0.00000000 0.00000000 -9.61457680
3
MD Step 72.5 Units = [eV / Ang.]
C  0.00000000 0.00000000 -1.94853766
O  0.00000000 -0.00000000 11.81918106
O  -0.00000000 -0.00000000 -9.87064340
3
MD Step 73.0 Units = [eV / Ang.]
C  -0.00000000 0.00000000 -1.25228962
O  -0.00000000 -0.00000000 11.32098525
O  0.00000000 0.00000000 -10.06869563
3
MD Step 73.5 Units = [eV / Ang.]
C  0.00000000 -0.00000000 -0.61140755
O  -0.00000000 -0.00000000 10.81529122
O  -0.00000000 0.00000000 -10.20388368
3
MD Step 74.0 Units = [eV / Ang.]
C  0.00000000 0.00000000 -0.03709112
O  -0.00000000 -0.00000000 10.30926208
O  -0.00000000 -0.00000000 -10.27217095
3
MD Step 74.5 Units = [eV / Ang.]
C  0.00000000 0.00000000 0.46081044
O  0.00000000 -0.00000000 9.80551651
O  -0.00000000 -0.00000000 -10.26632696
3
MD Step 75.0 Units = [eV / Ang.]
C  -0.00000000 0.00000000 0.87315811
O  -0.00000000 -0.00000000 9.30565901
O  0.00000000 -0.00000000 -10.17881712
3
MD Step 75.5 Units = [eV / Ang.]
C  -0.00000000 -0.00000000 1.18838013
O  0.00000000 -0.00000000 8.81083506
O  0.00000000 0.00000000 -9.99921518
3
MD Step 76.0 Units = [eV / Ang.]
C  0.00000000 -0.00000000 1.39187570
O  -0.00000000 -0.00000000 8.32284611
O  0.00000000 0.00000000 -9.71472181
3
MD Step 76.5 Units = [eV / Ang.]
C  0.00000000 0.00000000 1.46392098
O  -0.00000000 0.00000000 7.84270558
O  -0.00000000 -0.00000000 -9.30662656
3
MD Step 77.0 Units = [eV / Ang.]
C  0.00000000 0.00000000 1.38280018
O  -0.00000000 -0.00000000 7.37298991
O  0.00000000 -0.00000000 -8.75579009
3
MD Step 77.5 Units = [eV / Ang.]
C  -0.00000000 0.00000000 1.12060721
O  0.00000000 0.00000000 6.91621604
O  0.00000000 -0.00000000 -8.03682325
3
MD Step 78.0 Units = [eV / Ang.]
C  0.00000000 0.00000000 0.64562381
O  -0.00000000 0.00000000 6.47765500
O  -0.00000000 -0.00000000 -7.12327881
3
MD Step 78.5 Units = [eV / Ang.]
C  -0.00000000 0.00000000 -0.07449628
O  -0.00000000 -0.00000000 6.06229435
O  0.00000000 -0.00000000 -5.98779807
3
MD Step 79.0 Units = [eV / Ang.]
C  0.00000000 -0.00000000 -1.06770695
O  -0.00000000 -0.00000000 5.67709633
O  0.00000000 0.00000000 -4.60938938
3
MD Step 79.5 Units = [eV / Ang.]
C  -0.00000000 0.00000000 -2.34607345
O  -0.00000000 0.00000000 5.32908591
O  0.00000000 -0.00000000 -2.98301246
3
MD Step 80.0 Units = [eV / Ang.]
C  0.00000000 0.00000000 -3.90024070
O  -0.00000000 -0.00000000 5.02370898
O  -0.00000000 -0.00000000 -1.12346828
3
MD Step 80.5 Units = [eV / Ang.]
C  -0.00000000 -0.00000000 -5.67741011
O  0.00000000 -0.00000000 4.76502503
O  0.00000000 0.00000000 0.91238509
3
MD Step 81.0 Units = [eV / Ang.]
C  0.00000000 -0.00000000 -7.57340206
O  -0.00000000 -0.00000000 4.55397552
O  -0.00000000 0.00000000 3.01942654
3
MD Step 81.5 Units = [eV / Ang.]
C  0.00000000 -0.00000000 -9.42718956
O  -0.00000000 -0.00000000 4.38908776
O  -0.00000000 0.00000000 5.03810180
3
MD Step 82.0 Units = [eV / Ang.]
C  -0.00000000 -0.00000000 -11.03769061
O  -0.00000000 -0.00000000 4.26709055
O  0.00000000 0.00000000 6.77060006
3
MD Step 82.5 Units = [eV / Ang.]
C  -0.00000000 0.00000000 -12.20044778
O  0.00000000 -0.00000000 4.18355018
O  0.00000000 -0.00000000 8.01689760
3
MD Step 83.0 Units = [eV / Ang.]
C  -0.00000000 -0.00000000 -12.74433605
O  0.00000000 -0.00000000 4.13548406
O  0.00000000 0.00000000 8.60885200
3
MD Step 83.5 Units = [eV / Ang.]
C  0.00000000 0.00000000 -12.57970172
O  -0.00000000 0.00000000 4.12039130
O  -0.00000000 -0.00000000 8.45931042
3
MD Step 84.0 Units = [eV / Ang.]
C  -0.00000000 0.00000000 -11.72853594
O  0.00000000 0.00000000 4.13757095
O  0.00000000 -0.00000000 7.59096499
3
MD Step 84.5 Units = [eV / Ang.]
C  0.00000000 -0.00000000 -10.31457490
O  -0.00000000 0.00000000 4.18733892
O  -0.00000000 0.00000000 6.12723598
3
MD Step 85.0 Units = [eV / Ang.]
C  0.00000000 0.00000000 -8.52547261
O  -0.00000000 0.00000000 4.27111787
O  -0.00000000 -0.00000000 4.25435474
3
MD Step 85.5 Units = [eV / Ang.]
C  0.00000000 0.00000000 -6.56833202
O  0.00000000 0.00000000 4.39066487
O  -0.00000000 -0.00000000 2.17766715
3
MD Step 86.0 Units = [eV / Ang.]
C  0.00000000 0.00000000 -4.62839375
O  0.00000000 -0.00000000 4.54699898
O  -0.00000000 0.00000000 0.08139477
3
MD Step 86.5 Units = [eV / Ang.]
C  -0.00000000 -0.00000000 -2.84136342
O  0.00000000 0.00000000 4.74012453
O  0.00000000 0.00000000 -1.89876110
3
MD Step 87.0 Units = [eV / Ang.]
C  0.00000000 0.00000000 -1.29328708
O  -0.00000000 0.00000000 4.96801181
O  -0.00000000 -0.00000000 -3.67472473
3
MD Step 87.5 Units = [eV / Ang.]
C  -0.00000000 -0.00000000 -0.02075750
O  0.00000000 -0.00000000 5.22730673
O  0.00000000 0.00000000 -5.20654923
3
MD Step 88.0 Units = [eV / Ang.]
C  -0.00000000 0.00000000 0.97307216
O  0.00000000 0.00000000 5.51292228
O  -0.00000000 -0.00000000 -6.48599443
3
MD Step 88.5 Units = [eV / Ang.]
C  0.00000000 -0.00000000 1.70568551
O  -0.00000000 -0.00000000 5.81944125
O  0.00000000 0.00000000 -7.52512677
3
MD Step 89.0 Units = [eV / Ang.]
C  -0.00000000 0.00000000 2.20593825
O  -0.00000000 0.00000000 6.14192330
O  0.00000000 -0.00000000 -8.34786155
3
MD Step 89.5 Units = [eV / Ang.]
C  -0.00000000 -0.00000000 2.50327464
O  0.00000000 -0.00000000 6.47640583
O  0.00000000 0.00000000 -8.97968047
3
MD Step 90.0 Units = [eV / Ang.]
C  0.00000000 -0.00000000 2.62614013
O  0.00000000 0.00000000 6.81968355
O  -0.00000000 0.00000000 -9.44582368
3
MD Step 90.5 Units = [eV / Ang.]
C  -0.00000000 -0.00000000 2.59724566
O  0.00000000 0.00000000 7.16980062
O  -0.00000000 0.00000000 -9.76704628
3
MD Step 91.0 Units = [eV / Ang.]
C  0.00000000 -0.00000000 2.43618585
O  -0.00000000 -0.00000000 7.52591601
O  -0.00000000 0.00000000 -9.96210186
3
MD Step 91.5 Units = [eV / Ang.]
C  -0.00000000 -0.00000000 2.15541903
O  0.00000000 0.00000000 7.88793009
O  0.00000000 0.00000000 -10.04334912
3
MD Step 92.0 Units = [eV / Ang.]
C  -0.00000000 -0.00000000 1.76361080
O  -0.00000000 -0.00000000 8.25617371
O  0.00000000 0.00000000 -10.01978452
3
MD Step 92.5 Units = [eV / Ang.]
C  -0.00000000 0.00000000 1.26585015
O  0.00000000 0.00000000 8.63208915
O  -0.00000000 -0.00000000 -9.89793930
3
MD Step 93.0 Units = [eV / Ang.]
C  -0.00000000 0.00000000 0.66315744
O  0.00000000 0.00000000 9.01681841
O  -0.00000000 -0.00000000 -9.67997585
3
MD Step 93.5 Units = [eV / Ang.]
C  0.00000000 -0.00000000 -0.04527047
O  0.00000000 -0.00000000 9.41222948
O  -0.00000000 0.00000000 -9.36695901
3
MD Step 94.0 Units = [eV / Ang.]
C  -0.00000000 0.00000000 -0.85941913
O  -0.00000000 -0.00000000 9.81986519
O  0.00000000 -0.00000000 -8.96044606
3
MD Step 94.5 Units = [eV / Ang.]
C  -0.00000000 0.00000000 -1.77993977
O  -0.00000000 0.00000000 10.24075974
O  0.00000000 -0.00000000 -8.46081997
3
MD Step 95.0 Units = [eV / Ang.]
C  0.00000000 -0.00000000 -2.80409834
O  -0.00000000 0.00000000 10.67558466
O  -0.00000000 0.00000000 -7.87148632
3
MD Step 95.5 Units = [eV / Ang.]
C  -0.00000000 0.00000000 -3.92450430
O  -0.00000000 -0.00000000 11.12449639
O  0.00000000 -0.00000000 -7.19999209
3
MD Step 96.0 Units = [eV / Ang.]
C  -0.00000000 -0.00000000 -5.12248506
O  0.00000000 -0.00000000 11.58247542
O  0.00000000 0.00000000 -6.45999036
3
MD Step 96.5 Units = [eV / Ang.]
C  0.00000000 -0.00000000 -6.36819611
O  0.00000000 -0.00000000 12.03890228
O  -0.00000000 0.00000000 -5.67070617
3
MD Step 97.0 Units = [eV / Ang.]
C  -0.00000000 -0.00000000 -7.61279609
O  0.00000000 0.00000000 12.47671562
O  0.00000000 0.00000000 -4.86391953
3
MD Step 97.5 Units = [eV / Ang.]
C  -0.00000000 -0.00000000 -8.79147379
O  0.00000000 0.00000000 12.86628325
O  0.00000000 -0.00000000 -4.07480945
3
MD Step 98.0 Units = [eV / Ang.]
C  -0.00000000 0.00000000 -9.81121447
O  -0.00000000 0.00000000 13.16015920
O  0.00000000 -0.00000000 -3.34894473
3
MD Step 98.5 Units = [eV / Ang.]
C  0.00000000 -0.00000000 -10.55072239
O  0.00000000 -0.00000000 13.28012367
O  -0.00000000 0.00000000 -2.72940129
3
MD Step 99.0 Units = [eV / Ang.]
C  -0.00000000 -0.00000000 -10.84512094
O  0.00000000 -0.00000000 13.09985577
O  0.00000000 0.00000000 -2.25473482
3
MD Step 99.5 Units = [eV / Ang.]
C  -0.00000000 -0.00000000 -10.46966829
O  -0.00000000 0.00000000 12.41537663
O  0.00000000 0.00000000 -1.94570834
3
MD Step 100.0 Units = [eV / Ang.]
C  0.00000000 -0.00000000 -9.10041386
O  -0.00000000 -0.00000000 10.89890897
O  0.00000000 0.00000000 -1.79849511
3
MD Step 100.5 Units = [eV / Ang.]
C  -0.00000000 -0.00000000 -6.25118291
O  0.00000000 0.00000000 8.02750240