3
MD Step 0 Units = [Angstroms]
C  -0.00000000 -0.00000000 -0.00000000
O  0.00000000 0.00000000 -1.14372786
O  0.00000000 0.00000000 1.14372786
3
MD Step 1 Units = [Angstroms]
C  -0.00000000 -0.00000000 0.00908854
O  0.00000000 -0.00000000 -1.18463861
O  0.00000000 0.00000000 1.17781570
3
MD Step 2 Units = [Angstroms]
C  -0.00000000 -0.00000000 0.01776390
O  0.00000000 0.00000000 -1.22480811
O  0.00000000 0.00000000 1.21147247
3
MD Step 3 Units = [Angstroms]
C  0.00000000 -0.00000000 0.02582580
O  -0.00000000 0.00000000 -1.26373090
O  -0.00000000 0.00000000 1.24434307
3
MD Step 4 Units = [Angstroms]
C  0.00000000 0.00000000 0.03321497
O  -0.00000000 -0.00000000 -1.30107114
O  -0.00000000 -0.00000000 1.27613615
3
MD Step 5 Units = [Angstroms]
C  -0.00000000 0.00000000 0.03995748
O  0.00000000 -0.00000000 -1.33661192
O  0.00000000 -0.00000000 1.30661522
3
MD Step 6 Units = [Angstroms]
C  -0.00000000 -0.00000000 0.04612678
O  0.00000000 0.00000000 -1.37021865
O  0.00000000 0.00000000 1.33559055
3
MD Step 7 Units = [Angstroms]
C  -0.00000001 -0.00000000 0.05181934
O  0.00000000 0.00000000 -1.40181329
O  0.00000000 0.00000000 1.36291170
3
MD Step 8 Units = [Angstroms]
C  -0.00000001 -0.00000001 0.05714011
O  0.00000000 0.00000000 -1.43135662
O  0.00000001 0.00000000 1.38846065
3
MD Step 9 Units = [Angstroms]
C  -0.00000002 -0.00000001 0.06219407
O  0.00000001 0.00000000 -1.45883589
O  0.00000001 0.00000000 1.41214583
3
MD Step 10 Units = [Angstroms]
C  -0.00000002 -0.00000001 0.06708185
O  0.00000001 0.00000000 -1.48425638
O  0.00000001 0.00000000 1.43389699
3
MD Step 11 Units = [Angstroms]
C  -0.00000003 -0.00000001 0.07189770
O  0.00000001 0.00000001 -1.50763547
O  0.00000001 0.00000001 1.45366074
3
MD Step 12 Units = [Angstroms]
C  -0.00000003 -0.00000002 0.07672892
O  0.00000001 0.00000001 -1.52899855
O  0.00000001 0.00000001 1.47139695
3
MD Step 13 Units = [Angstroms]
C  -0.00000003 -0.00000002 0.08165605
O  0.00000001 0.00000001 -1.54837611
O  0.00000001 0.00000001 1.48707563
3
MD Step 14 Units = [Angstroms]
C  -0.00000004 -0.00000002 0.08675327
O  0.00000001 0.00000001 -1.56580167
O  0.00000002 0.00000001 1.50067463
3
MD Step 15 Units = [Angstroms]
C  -0.00000004 -0.00000002 0.09208916
O  0.00000002 0.00000001 -1.58131043
O  0.00000002 0.00000001 1.51217766
3
MD Step 16 Units = [Angstroms]
C  -0.00000005 -0.00000003 0.09772717
O  0.00000002 0.00000001 -1.59493821
O  0.00000002 0.00000001 1.52157290
3
MD Step 17 Units = [Angstroms]
C  -0.00000005 -0.00000003 0.10372610
O  0.00000002 0.00000001 -1.60672079
O  0.00000002 0.00000001 1.52885198
3
MD Step 18 Units = [Angstroms]
C  -0.00000006 -0.00000003 0.11014029
O  0.00000002 0.00000001 -1.61669338
O  0.00000002 0.00000001 1.53400934
3
MD Step 19 Units = [Angstroms]
C  -0.00000006 -0.00000003 0.11701946
O  0.00000002 0.00000001 -1.62489034
O  0.00000002 0.00000001 1.53704200
3
MD Step 20 Units = [Angstroms]
C  -0.00000006 -0.00000003 0.12440839
O  0.00000002 0.00000001 -1.63134501
O  0.00000003 0.00000001 1.53794968
3
MD Step 21 Units = [Angstroms]
C  -0.00000007 -0.00000004 0.13234598
O  0.00000002 0.00000001 -1.63608960
O  0.00000003 0.00000001 1.53673540
3
MD Step 22 Units = [Angstroms]
C  -0.00000007 -0.00000004 0.14086388
O  0.00000003 0.00000001 -1.63915523
O  0.00000003 0.00000002 1.53340652
3
MD Step 23 Units = [Angstroms]
C  -0.00000008 -0.00000004 0.14998425
O  0.00000003 0.00000002 -1.64057199
O  0.00000003 0.00000002 1.52797647
3
MD Step 24 Units = [Angstroms]
C  -0.00000008 -0.00000004 0.15971686
O  0.00000003 0.00000002 -1.64036905
O  0.00000003 0.00000002 1.52046710
3
MD Step 25 Units = [Angstroms]
C  -0.00000009 -0.00000005 0.17005473
O  0.00000003 0.00000002 -1.63857479
O  0.00000003 0.00000002 1.51091205
3
MD Step 26 Units = [Angstroms]
C  -0.00000009 -0.00000005 0.18096828
O  0.00000003 0.00000002 -1.63521701
O  0.00000003 0.00000002 1.49936129
3
MD Step 27 Units = [Angstroms]
C  -0.00000009 -0.00000005 0.19239764
O  0.00000003 0.00000002 -1.63032303
O  0.00000004 0.00000002 1.48588711
3
MD Step 28 Units = [Angstroms]
C  -0.00000010 -0.00000005 0.20424211
O  0.00000004 0.00000002 -1.62391980
O  0.00000004 0.00000002 1.47059205
3
MD Step 29 Units = [Angstroms]
C  -0.00000010 -0.00000006 0.21634676
O  0.00000004 0.00000002 -1.61603391
O  0.00000004 0.00000002 1.45361901
3
MD Step 30 Units = [Angstroms]
C  -0.00000011 -0.00000006 0.22848554
O  0.00000004 0.00000002 -1.60669146
O  0.00000004 0.00000002 1.43516379
3
MD Step 31 Units = [Angstroms]
C  -0.00000011 -0.00000006 0.24034137
O  0.00000004 0.00000002 -1.59591757
O  0.00000004 0.00000002 1.41548954
3
MD Step 32 Units = [Angstroms]
C  -0.00000012 -0.00000006 0.25148448
O  0.00000004 0.00000002 -1.58373553
O  0.00000004 0.00000002 1.39494219
3
MD Step 33 Units = [Angstroms]
C  -0.00000012 -0.00000007 0.26135349
O  0.00000005 0.00000002 -1.57016528
O  0.00000005 0.00000002 1.37396312
3
MD Step 34 Units = [Angstroms]
C  -0.00000012 -0.00000007 0.26924804
O  0.00000005 0.00000003 -1.55522122
O  0.00000005 0.00000003 1.35309250
3
MD Step 35 Units = [Angstroms]
C  -0.00000013 -0.00000007 0.27434406
O  0.00000005 0.00000003 -1.53890926
O  0.00000005 0.00000003 1.33295488
3
MD Step 36 Units = [Angstroms]
C  -0.00000013 -0.00000007 0.27574811
O  0.00000005 0.00000003 -1.52122313
O  0.00000005 0.00000003 1.31421471
3
MD Step 37 Units = [Angstroms]
C  -0.00000014 -0.00000007 0.27259708
O  0.00000005 0.00000003 -1.50214045
O  0.00000005 0.00000003 1.29749755
3
MD Step 38 Units = [Angstroms]
C  -0.00000014 -0.00000008 0.26419190
O  0.00000005 0.00000003 -1.48161909
O  0.00000005 0.00000003 1.28328609
3
MD Step 39 Units = [Angstroms]
C  -0.00000015 -0.00000008 0.25012824
O  0.00000005 0.00000003 -1.45959452
O  0.00000006 0.00000003 1.27181934
3
MD Step 40 Units = [Angstroms]
C  -0.00000015 -0.00000008 0.23036976
O  0.00000005 0.00000003 -1.43597985
O  0.00000006 0.00000003 1.26303767
3
MD Step 41 Units = [Angstroms]
C  -0.00000015 -0.00000008 0.20523717
O  0.00000005 0.00000003 -1.41067062
O  0.00000006 0.00000003 1.25659587
3
MD Step 42 Units = [Angstroms]
C  -0.00000016 -0.00000009 0.17532050
O  0.00000005 0.00000003 -1.38355593
O  0.00000007 0.00000004 1.25194009
3
MD Step 43 Units = [Angstroms]
C  -0.00000016 -0.00000009 0.14136276
O  0.00000005 0.00000003 -1.35453596
O  0.00000007 0.00000004 1.24841272
3
MD Step 44 Units = [Angstroms]
C  -0.00000017 -0.00000009 0.10416311
O  0.00000005 0.00000003 -1.32354639
O  0.00000007 0.00000004 1.24534952
3
MD Step 45 Units = [Angstroms]
C  -0.00000017 -0.00000009 0.06453073
O  0.00000005 0.00000003 -1.29059205
O  0.00000008 0.00000004 1.24214782
3
MD Step 46 Units = [Angstroms]
C  -0.00000017 -0.00000009 0.02330258
O  0.00000005 0.00000003 -1.25579671
O  0.00000008 0.00000004 1.23830310
3
MD Step 47 Units = [Angstroms]
C  -0.00000018 -0.00000010 -0.01856716
O  0.00000005 0.00000003 -1.21948193
O  0.00000009 0.00000005 1.23342059
3
MD Step 48 Units = [Angstroms]
C  -0.00000018 -0.00000010 -0.05983581
O  0.00000005 0.00000002 -1.18229279
O  0.00000009 0.00000005 1.22721246
3
MD Step 49 Units = [Angstroms]
C  -0.00000018 -0.00000010 -0.09871133
O  0.00000004 0.00000002 -1.14538447
O  0.00000009 0.00000005 1.21948861
3
MD Step 50 Units = [Angstroms]
C  -0.00000019 -0.00000010 -0.13253599
O  0.00000004 0.00000002 -1.11064792
O  0.00000010 0.00000005 1.21014476
3
MD Step 51 Units = [Angstroms]
C  -0.00000019 -0.00000010 -0.15760797
O  0.00000004 0.00000002 -1.08082965
O  0.00000010 0.00000006 1.19914841
3
MD Step 52 Units = [Angstroms]
C  -0.00000020 -0.00000011 -0.16959760
O  0.00000004 0.00000002 -1.05919965
O  0.00000010 0.00000006 1.18651922
3
MD Step 53 Units = [Angstroms]
C  -0.00000020 -0.00000011 -0.16502907
O  0.00000005 0.00000002 -1.04841777
O  0.00000010 0.00000006 1.17230767
3
MD Step 54 Units = [Angstroms]
C  -0.00000020 -0.00000011 -0.14322397
O  0.00000005 0.00000003 -1.04907001
O  0.00000010 0.00000006 1.15659048
3
MD Step 55 Units = [Angstroms]
C  -0.00000021 -0.00000011 -0.10684504
O  0.00000005 0.00000003 -1.05929855
O  0.00000010 0.00000006 1.13950879
3
MD Step 56 Units = [Angstroms]
C  -0.00000021 -0.00000011 -0.06047540
O  0.00000006 0.00000003 -1.07596465
O  0.00000010 0.00000005 1.12136448
3
MD Step 57 Units = [Angstroms]
C  -0.00000021 -0.00000012 -0.00894069
O  0.00000006 0.00000003 -1.09605941
O  0.00000010 0.00000005 1.10277133
3
MD Step 58 Units = [Angstroms]
C  -0.00000021 -0.00000012 0.04331989
O  0.00000007 0.00000004 -1.11736994
O  0.00000009 0.00000005 1.08484902
3
MD Step 59 Units = [Angstroms]
C  -0.00000022 -0.00000012 0.09202305
O  0.00000008 0.00000004 -1.13850567
O  0.00000009 0.00000005 1.06942253
3
MD Step 60 Units = [Angstroms]
C  -0.00000022 -0.00000012 0.13267890
O  0.00000008 0.00000004 -1.15868722
O  0.00000008 0.00000005 1.05908309
3
MD Step 61 Units = [Angstroms]
C  -0.00000022 -0.00000012 0.16081014
O  0.00000009 0.00000005 -1.17752180
O  0.00000008 0.00000004 1.05679911
3
MD Step 62 Units = [Angstroms]
C  -0.00000023 -0.00000012 0.17315053
O  0.00000009 0.00000005 -1.19482709
O  0.00000008 0.00000004 1.06484028
3
MD Step 63 Units = [Angstroms]
C  -0.00000023 -0.00000012 0.16914795
O  0.00000009 0.00000005 -1.21051126
O  0.00000008 0.00000004 1.08352924
3
MD Step 64 Units = [Angstroms]
C  -0.00000023 -0.00000013 0.15117778
O  0.00000009 0.00000005 -1.22451150
O  0.00000008 0.00000005 1.11101998
3
MD Step 65 Units = [Angstroms]
C  -0.00000023 -0.00000013 0.12310942
O  0.00000009 0.00000005 -1.23678039
O  0.00000009 0.00000005 1.14436023
3
MD Step 66 Units = [Angstroms]
C  -0.00000023 -0.00000013 0.08868386
O  0.00000009 0.00000005 -1.24729795
O  0.00000009 0.00000005 1.18072159
3
MD Step 67 Units = [Angstroms]
C  -0.00000024 -0.00000013 0.05075570
O  0.00000008 0.00000004 -1.25608803
O  0.00000009 0.00000005 1.21798493
3
MD Step 68 Units = [Angstroms]
C  -0.00000024 -0.00000013 0.01126815
O  0.00000008 0.00000004 -1.26323028
O  0.00000010 0.00000005 1.25477110
3
MD Step 69 Units = [Angstroms]
C  -0.00000024 -0.00000013 -0.02849877
O  0.00000008 0.00000004 -1.26886884
O  0.00000010 0.00000006 1.29026331
3
MD Step 70 Units = [Angstroms]
C  -0.00000024 -0.00000013 -0.06766721
O  0.00000007 0.00000004 -1.27322039
O  0.00000011 0.00000006 1.32401922
3
MD Step 71 Units = [Angstroms]
C  -0.00000024 -0.00000013 -0.10556608
O  0.00000007 0.00000004 -1.27658238
O  0.00000011 0.00000006 1.35583249
3
MD Step 72 Units = [Angstroms]
C  -0.00000024 -0.00000013 -0.14160354
O  0.00000007 0.00000004 -1.27933893
O  0.00000012 0.00000006 1.38564292
3
MD Step 73 Units = [Angstroms]
C  -0.00000025 -0.00000013 -0.17519195
O  0.00000006 0.00000003 -1.28196078
O  0.00000012 0.00000007 1.41348011
3
MD Step 74 Units = [Angstroms]
C  -0.00000025 -0.00000013 -0.20571767
O  0.00000006 0.00000003 -1.28499225
O  0.00000013 0.00000007 1.43942773
3
MD Step 75 Units = [Angstroms]
C  -0.00000025 -0.00000014 -0.23255121
O  0.00000006 0.00000003 -1.28901886
O  0.00000013 0.00000007 1.46359869
3
MD Step 76 Units = [Angstroms]
C  -0.00000025 -0.00000014 -0.25509817
O  0.00000006 0.00000003 -1.29461032
O  0.00000013 0.00000007 1.48611651
3
MD Step 77 Units = [Angstroms]
C  -0.00000025 -0.00000014 -0.27288156
O  0.00000005 0.00000003 -1.30224391
O  0.00000014 0.00000007 1.50710036
3
MD Step 78 Units = [Angstroms]
C  -0.00000025 -0.00000014 -0.28563737
O  0.00000005 0.00000003 -1.31222169
O  0.00000014 0.00000007 1.52665414
3
MD Step 79 Units = [Angstroms]
C  -0.00000026 -0.00000014 -0.29338813
O  0.00000005 0.00000003 -1.32460980
O  0.00000014 0.00000008 1.54486086
3
MD Step 80 Units = [Angstroms]
C  -0.00000026 -0.00000014 -0.29646074
O  0.00000005 0.00000003 -1.33922366
O  0.00000014 0.00000008 1.56178138
3
MD Step 81 Units = [Angstroms]
C  -0.00000026 -0.00000014 -0.29543575
O  0.00000005 0.00000003 -1.35566761
O  0.00000014 0.00000008 1.57745585
3
MD Step 82 Units = [Angstroms]
C  -0.00000026 -0.00000014 -0.29104951
O  0.00000005 0.00000003 -1.37341087
O  0.00000014 0.00000008 1.59190629
3
MD Step 83 Units = [Angstroms]
C  -0.00000026 -0.00000014 -0.28408467
O  0.00000005 0.00000003 -1.39187316
O  0.00000014 0.00000008 1.60513997
3
MD Step 84 Units = [Angstroms]
C  -0.00000026 -0.00000014 -0.27528382
O  0.00000005 0.00000003 -1.41049265
O  0.00000014 0.00000008 1.61715252
3
MD Step 85 Units = [Angstroms]
C  -0.00000026 -0.00000014 -0.26529618
O  0.00000005 0.00000003 -1.42876919
O  0.00000014 0.00000008 1.62793119
3
MD Step 86 Units = [Angstroms]
C  -0.00000026 -0.00000014 -0.25465664
O  0.00000006 0.00000003 -1.44628276
O  0.00000014 0.00000008 1.63745749
3
MD Step 87 Units = [Angstroms]
C  -0.00000026 -0.00000014 -0.24378613
O  0.00000006 0.00000003 -1.46269528
O  0.00000014 0.00000008 1.64570935
3
MD Step 88 Units = [Angstroms]
C  -0.00000027 -0.00000014 -0.23300457
O  0.00000006 0.00000003 -1.47774242
O  0.00000014 0.00000008 1.65266260
3
MD Step 89 Units = [Angstroms]
C  -0.00000027 -0.00000014 -0.22254742
O  0.00000006 0.00000003 -1.49122228
O  0.00000014 0.00000008 1.65829211
3
MD Step 90 Units = [Angstroms]
C  -0.00000027 -0.00000015 -0.21258248
O  0.00000006 0.00000003 -1.50298336
O  0.00000014 0.00000008 1.66257236
3
MD Step 91 Units = [Angstroms]
C  -0.00000027 -0.00000015 -0.20322490
O  0.00000006 0.00000003 -1.51291358
O  0.00000014 0.00000008 1.66547769
3
MD Step 92 Units = [Angstroms]
C  -0.00000027 -0.00000015 -0.19454929
O  0.00000006 0.00000003 -1.52093132
O  0.00000014 0.00000008 1.66698252
3
MD Step 93 Units = [Angstroms]
C  -0.00000027 -0.00000015 -0.18659942
O  0.00000006 0.00000003 -1.52697812
O  0.00000014 0.00000008 1.66706122
3
MD Step 94 Units = [Angstroms]
C  -0.00000027 -0.00000015 -0.17939550
O  0.00000006 0.00000003 -1.53101305
O  0.00000014 0.00000008 1.66568806
3
MD Step 95 Units = [Angstroms]
C  -0.00000027 -0.00000015 -0.17293975
O  0.00000007 0.00000004 -1.53300850
O  0.00000014 0.00000008 1.66283708
3
MD Step 96 Units = [Angstroms]
C  -0.00000027 -0.00000015 -0.16722024
O  0.00000007 0.00000004 -1.53294708
O  0.00000014 0.00000008 1.65848193
3
MD Step 97 Units = [Angstroms]
C  -0.00000027 -0.00000015 -0.16221342
O  0.00000007 0.00000004 -1.53081956
O  0.00000014 0.00000008 1.65259572
3
MD Step 98 Units = [Angstroms]
C  -0.00000028 -0.00000015 -0.15788579
O  0.00000007 0.00000004 -1.52662353
O  0.00000014 0.00000008 1.64515086
3
MD Step 99 Units = [Angstroms]
C  -0.00000028 -0.00000015 -0.15419449
O  0.00000007 0.00000004 -1.52036275
O  0.00000014 0.00000008 1.63611897
3
MD Step 100 Units = [Angstroms]
C  -0.00000028 -0.00000015 -0.15108719
O  0.00000007 0.00000004 -1.51204719
O  0.00000014 0.00000007 1.62547071
3
MD Step 101 Units = [Angstroms]
C  -0.00000028 -0.00000015 -0.14850118
O  0.00000007 0.00000004 -1.50169355
O  0.00000014 0.00000007 1.61317571
3
MD Step 102 Units = [Angstroms]
C  -0.00000028 -0.00000015 -0.14636163
O  0.00000007 0.00000004 -1.48932649
O  0.00000014 0.00000007 1.59920246
3
MD Step 103 Units = [Angstroms]
C  -0.00000028 -0.00000015 -0.14457921
O  0.00000007 0.00000004 -1.47498034
O  0.00000014 0.00000007 1.58351822
3
MD Step 104 Units = [Angstroms]
C  -0.00000028 -0.00000015 -0.14304699
O  0.00000007 0.00000004 -1.45870149
O  0.00000014 0.00000007 1.56608910
3
MD Step 105 Units = [Angstroms]
C  -0.00000028 -0.00000015 -0.14163640
O  0.00000007 0.00000004 -1.44055147
O  0.00000014 0.00000007 1.54688013
3
MD Step 106 Units = [Angstroms]
C  -0.00000028 -0.00000015 -0.14019266
O  0.00000008 0.00000004 -1.42061061
O  0.00000014 0.00000007 1.52585544
3
MD Step 107 Units = [Angstroms]
C  -0.00000028 -0.00000015 -0.13852948
O  0.00000008 0.00000004 -1.39898246
O  0.00000014 0.00000007 1.50297872
3
MD Step 108 Units = [Angstroms]
C  -0.00000029 -0.00000015 -0.13642353
O  0.00000008 0.00000004 -1.37579850
O  0.00000014 0.00000007 1.47821378
3
MD Step 109 Units = [Angstroms]
C  -0.00000029 -0.00000016 -0.13360964
O  0.00000008 0.00000004 -1.35122277
O  0.00000014 0.00000007 1.45152562
3
MD Step 110 Units = [Angstroms]
C  -0.00000029 -0.00000016 -0.12977741
O  0.00000008 0.00000004 -1.32545612
O  0.00000014 0.00000007 1.42288205
3
MD Step 111 Units = [Angstroms]
C  -0.00000029 -0.00000016 -0.12457202
O  0.00000008 0.00000004 -1.29873830
O  0.00000013 0.00000007 1.39225647
3
MD Step 112 Units = [Angstroms]
C  -0.00000029 -0.00000016 -0.11760205
O  0.00000008 0.00000005 -1.27134658
O  0.00000013 0.00000007 1.35963228
3
MD Step 113 Units = [Angstroms]
C  -0.00000029 -0.00000016 -0.10845737
O  0.00000009 0.00000005 -1.24358972
O  0.00000013 0.00000007 1.32501037
3
MD Step 114 Units = [Angstroms]
C  -0.00000029 -0.00000016 -0.09674297
O  0.00000009 0.00000005 -1.21579488
O  0.00000013 0.00000007 1.28842135
3
MD Step 115 Units = [Angstroms]
C  -0.00000029 -0.00000016 -0.08213320
O  0.00000009 0.00000005 -1.18828724
O  0.00000013 0.00000007 1.24994592
3
MD Step 116 Units = [Angstroms]
C  -0.00000029 -0.00000016 -0.06445015
O  0.00000009 0.00000005 -1.16136473
O  0.00000013 0.00000007 1.20974847
3
MD Step 117 Units = [Angstroms]
C  -0.00000029 -0.00000016 -0.04376980
O  0.00000010 0.00000005 -1.13527364
O  0.00000012 0.00000007 1.16813231
3
MD Step 118 Units = [Angstroms]
C  -0.00000029 -0.00000016 -0.02056390
O  0.00000010 0.00000005 -1.11019094
O  0.00000012 0.00000007 1.12562858
3
MD Step 119 Units = [Angstroms]
C  -0.00000029 -0.00000016 0.00411788
O  0.00000010 0.00000006 -1.08622379
O  0.00000012 0.00000006 1.08313243
3
MD Step 120 Units = [Angstroms]
C  -0.00000030 -0.00000016 0.02843008
O  0.00000011 0.00000006 -1.06343147
O  0.00000011 0.00000006 1.04208857
3
MD Step 121 Units = [Angstroms]
C  -0.00000030 -0.00000016 0.04954707
O  0.00000011 0.00000006 -1.04186980
O  0.00000011 0.00000006 1.00467404
3
MD Step 122 Units = [Angstroms]
C  -0.00000030 -0.00000016 0.06375120
O  0.00000011 0.00000006 -1.02165538
O  0.00000011 0.00000006 0.97379635
3
MD Step 123 Units = [Angstroms]
C  -0.00000030 -0.00000016 0.06723000
O  0.00000012 0.00000006 -1.00304510
O  0.00000011 0.00000006 0.95257449
3
MD Step 124 Units = [Angstroms]
C  -0.00000030 -0.00000016 0.05776248
O  0.00000012 0.00000006 -0.98652920
O  0.00000011 0.00000006 0.94316600
3
MD Step 125 Units = [Angstroms]
C  -0.00000030 -0.00000016 0.03636803
O  0.00000011 0.00000006 -0.97294448
O  0.00000011 0.00000006 0.94564243
3
MD Step 126 Units = [Angstroms]
C  -0.00000030 -0.00000016 0.00737514
O  0.00000011 0.00000006 -0.96358525
O  0.00000012 0.00000006 0.95804862
3
MD Step 127 Units = [Angstroms]
C  -0.00000030 -0.00000016 -0.02312045
O  0.00000010 0.00000006 -0.96020607
O  0.00000012 0.00000007 0.97756295
3
MD Step 128 Units = [Angstroms]
C  -0.00000030 -0.00000016 -0.04911931
O  0.00000010 0.00000005 -0.96472939
O  0.00000013 0.00000007 1.00160403
3
MD Step 129 Units = [Angstroms]
C  -0.00000030 -0.00000016 -0.06621067
O  0.00000010 0.00000005 -0.97856409
O  0.00000013 0.00000007 1.02826948
3
MD Step 130 Units = [Angstroms]
C  -0.00000030 -0.00000016 -0.07252700
O  0.00000009 0.00000005 -1.00185194
O  0.00000013 0.00000007 1.05629910
3
MD Step 131 Units = [Angstroms]
C  -0.00000030 -0.00000016 -0.06876468
O  0.00000009 0.00000005 -1.03326573
O  0.00000013 0.00000007 1.08488845
3
MD Step 132 Units = [Angstroms]
C  -0.00000030 -0.00000016 -0.05722404
O  0.00000009 0.00000005 -1.07056415
O  0.00000013 0.00000007 1.11352313
3
MD Step 133 Units = [Angstroms]
C  -0.00000030 -0.00000016 -0.04059460
O  0.00000010 0.00000005 -1.11139180
O  0.00000013 0.00000007 1.14186681
3
MD Step 134 Units = [Angstroms]
C  -0.00000030 -0.00000016 -0.02117949
O  0.00000010 0.00000005 -1.15379212
O  0.00000013 0.00000007 1.16969190
3
MD Step 135 Units = [Angstroms]
C  -0.00000030 -0.00000016 -0.00064897
O  0.00000010 0.00000005 -1.19634956
O  0.00000013 0.00000007 1.19683675
3
MD Step 136 Units = [Angstroms]
C  -0.00000030 -0.00000016 0.01990793
O  0.00000010 0.00000006 -1.23812362
O  0.00000012 0.00000007 1.22317843
3
MD Step 137 Units = [Angstroms]
C  -0.00000030 -0.00000016 0.03984095
O  0.00000010 0.00000006 -1.27852558
O  0.00000012 0.00000007 1.24861636
3
MD Step 138 Units = [Angstroms]
C  -0.00000030 -0.00000016 0.05880274
O  0.00000011 0.00000006 -1.31720645
O  0.00000012 0.00000006 1.27306231
3
MD Step 139 Units = [Angstroms]
C  -0.00000030 -0.00000016 0.07664529
O  0.00000011 0.00000006 -1.35397433
O  0.00000012 0.00000006 1.29643551
3
MD Step 140 Units = [Angstroms]
C  -0.00000030 -0.00000016 0.09334861
O  0.00000011 0.00000006 -1.38873845
O  0.00000011 0.00000006 1.31866019
3
MD Step 141 Units = [Angstroms]
C  -0.00000030 -0.00000016 0.10897269
O  0.00000011 0.00000006 -1.42147265
O  0.00000011 0.00000006 1.33966514
3
MD Step 142 Units = [Angstroms]
C  -0.00000030 -0.00000016 0.12362570
O  0.00000011 0.00000006 -1.45219171
O  0.00000011 0.00000006 1.35938397
3
MD Step 143 Units = [Angstroms]
C  -0.00000030 -0.00000016 0.13744247
O  0.00000012 0.00000006 -1.48093629
O  0.00000011 0.00000006 1.37775608
3
MD Step 144 Units = [Angstroms]
C  -0.00000030 -0.00000016 0.15057052
O  0.00000012 0.00000006 -1.50776302
O  0.00000011 0.00000006 1.39472738
3
MD Step 145 Units = [Angstroms]
C  -0.00000030 -0.00000016 0.16316045
O  0.00000012 0.00000006 -1.53273832
O  0.00000011 0.00000006 1.41025121
3
MD Step 146 Units = [Angstroms]
C  -0.00000030 -0.00000016 0.17535963
O  0.00000012 0.00000006 -1.55593424
O  0.00000011 0.00000006 1.42428903
3
MD Step 147 Units = [Angstroms]
C  -0.00000030 -0.00000016 0.18730767
O  0.00000012 0.00000007 -1.57742580
O  0.00000010 0.00000006 1.43681100
3
MD Step 148 Units = [Angstroms]
C  -0.00000030 -0.00000016 0.19913310
O  0.00000012 0.00000007 -1.59728912
O  0.00000010 0.00000006 1.44779679
3
MD Step 149 Units = [Angstroms]
C  -0.00000030 -0.00000016 0.21095109
O  0.00000012 0.00000007 -1.61560039
O  0.00000010 0.00000005 1.45723611
3
MD Step 150 Units = [Angstroms]
C  -0.00000030 -0.00000016 0.22286149
O  0.00000012 0.00000007 -1.63243545
O  0.00000010 0.00000005 1.46512984
3
MD Step 151 Units = [Angstroms]
C  -0.00000030 -0.00000016 0.23494699
O  0.00000013 0.00000007 -1.64786954
O  0.00000010 0.00000005 1.47149116
3
MD Step 152 Units = [Angstroms]
C  -0.00000030 -0.00000016 0.24727082
O  0.00000013 0.00000007 -1.66197717
O  0.00000010 0.00000005 1.47634710
3
MD Step 153 Units = [Angstroms]
C  -0.00000030 -0.00000016 0.25987377
O  0.00000013 0.00000007 -1.67483180
O  0.00000010 0.00000005 1.47974049
3
MD Step 154 Units = [Angstroms]
C  -0.00000030 -0.00000016 0.27277030
O  0.00000013 0.00000007 -1.68650571
O  0.00000009 0.00000005 1.48173278
3
MD Step 155 Units = [Angstroms]
C  -0.00000030 -0.00000016 0.28594414
O  0.00000013 0.00000007 -1.69706962
O  0.00000009 0.00000005 1.48240688
3
MD Step 156 Units = [Angstroms]
C  -0.00000030 -0.00000016 0.29934270
O  0.00000013 0.00000007 -1.70659231
O  0.00000009 0.00000005 1.48187105
3
MD Step 157 Units = [Angstroms]
C  -0.00000030 -0.00000016 0.31287074
O  0.00000013 0.00000007 -1.71513978
O  0.00000009 0.00000005 1.48026282
3
MD Step 158 Units = [Angstroms]
C  -0.00000030 -0.00000016 0.32638384
O  0.00000013 0.00000007 -1.72277458
O  0.00000009 0.00000005 1.47775312
3
MD Step 159 Units = [Angstroms]
C  -0.00000030 -0.00000016 0.33968282
O  0.00000014 0.00000007 -1.72955470
O  0.00000009 0.00000005 1.47454948
3
MD Step 160 Units = [Angstroms]
C  -0.00000030 -0.00000016 0.35251132
O  0.00000014 0.00000007 -1.73553252
O  0.00000009 0.00000005 1.47089676
3
MD Step 161 Units = [Angstroms]
C  -0.00000030 -0.00000016 0.36455766
O  0.00000014 0.00000008 -1.74075403
O  0.00000008 0.00000005 1.46707489
3
MD Step 162 Units = [Angstroms]
C  -0.00000030 -0.00000016 0.37546544
O  0.00000014 0.00000008 -1.74525817
O  0.00000008 0.00000005 1.46339039
3
MD Step 163 Units = [Angstroms]
C  -0.00000030 -0.00000016 0.38485444
O  0.00000014 0.00000008 -1.74907671
O  0.00000008 0.00000004 1.46016045
3
MD Step 164 Units = [Angstroms]
C  -0.00000030 -0.00000016 0.39235291
O  0.00000014 0.00000008 -1.75223447
O  0.00000008 0.00000004 1.45768900
3
MD Step 165 Units = [Angstroms]
C  -0.00000030 -0.00000016 0.39763786
O  0.00000014 0.00000008 -1.75474983
O  0.00000008 0.00000004 1.45623686
3
MD Step 166 Units = [Angstroms]
C  -0.00000030 -0.00000016 0.40047612
O  0.00000014 0.00000008 -1.75663535
O  0.00000008 0.00000004 1.45599166
3
MD Step 167 Units = [Angstroms]
C  -0.00000030 -0.00000016 0.40075862
O  0.00000014 0.00000008 -1.75789829
O  0.00000008 0.00000004 1.45704252
3
MD Step 168 Units = [Angstroms]
C  -0.00000029 -0.00000016 0.39851836
O  0.00000014 0.00000008 -1.75854089
O  0.00000008 0.00000004 1.45936692
3
MD Step 169 Units = [Angstroms]
C  -0.00000029 -0.00000016 0.39392606
O  0.00000014 0.00000008 -1.75856059
O  0.00000008 0.00000004 1.46283414
3
MD Step 170 Units = [Angstroms]
C  -0.00000029 -0.00000016 0.38726525
O  0.00000014 0.00000008 -1.75794989
O  0.00000008 0.00000004 1.46722380
3
MD Step 171 Units = [Angstroms]
C  -0.00000029 -0.00000016 0.37889474
O  0.00000014 0.00000008 -1.75669618
O  0.00000008 0.00000004 1.47225396
3
MD Step 172 Units = [Angstroms]
C  -0.00000029 -0.00000016 0.36920701
O  0.00000014 0.00000008 -1.75478145
O  0.00000008 0.00000004 1.47761197
3
MD Step 173 Units = [Angstroms]
C  -0.00000029 -0.00000016 0.35859109
O  0.00000014 0.00000007 -1.75218217
O  0.00000008 0.00000004 1.48298223
3
MD Step 174 Units = [Angstroms]
C  -0.00000029 -0.00000016 0.34740537
O  0.00000014 0.00000007 -1.74886927
O  0.00000008 0.00000004 1.48806663
3
MD Step 175 Units = [Angstroms]
C  -0.00000029 -0.00000016 0.33596028
O  0.00000014 0.00000007 -1.74480844
O  0.00000008 0.00000004 1.49259780
3
MD Step 176 Units = [Angstroms]
C  -0.00000029 -0.00000016 0.32451104
O  0.00000013 0.00000007 -1.73996065
O  0.00000008 0.00000005 1.49634513
3
MD Step 177 Units = [Angstroms]
C  -0.00000029 -0.00000016 0.31325693
O  0.00000013 0.00000007 -1.73428288
O  0.00000008 0.00000005 1.49911600
3
MD Step 178 Units = [Angstroms]
C  -0.00000029 -0.00000016 0.30234489
O  0.00000013 0.00000007 -1.72772900
O  0.00000009 0.00000005 1.50075397
3
MD Step 179 Units = [Angstroms]
C  -0.00000029 -0.00000016 0.29187522
O  0.00000013 0.00000007 -1.72025046
O  0.00000009 0.00000005 1.50113517
3
MD Step 180 Units = [Angstroms]
C  -0.00000029 -0.00000016 0.28190757
O  0.00000013 0.00000007 -1.71179690
O  0.00000009 0.00000005 1.50016448
3
MD Step 181 Units = [Angstroms]
C  -0.00000029 -0.00000016 0.27246656
O  0.00000013 0.00000007 -1.70231664
O  0.00000009 0.00000005 1.49777173
3
MD Step 182 Units = [Angstroms]
C  -0.00000029 -0.00000016 0.26354641
O  0.00000013 0.00000007 -1.69175697
O  0.00000009 0.00000005 1.49390856
3
MD Step 183 Units = [Angstroms]
C  -0.00000029 -0.00000015 0.25511482
O  0.00000013 0.00000007 -1.68006428
O  0.00000009 0.00000005 1.48854560
3
MD Step 184 Units = [Angstroms]
C  -0.00000028 -0.00000015 0.24711547
O  0.00000012 0.00000007 -1.66718407
O  0.00000009 0.00000005 1.48167062
3
MD Step 185 Units = [Angstroms]
C  -0.00000028 -0.00000015 0.23946980
O  0.00000012 0.00000007 -1.65306089
O  0.00000009 0.00000005 1.47328716
3
MD Step 186 Units = [Angstroms]
C  -0.00000028 -0.00000015 0.23207799
O  0.00000012 0.00000007 -1.63763816
O  0.00000009 0.00000005 1.46341358
3
MD Step 187 Units = [Angstroms]
C  -0.00000028 -0.00000015 0.22481917
O  0.00000012 0.00000007 -1.62085795
O  0.00000009 0.00000005 1.45208268
3
MD Step 188 Units = [Angstroms]
C  -0.00000028 -0.00000015 0.21755127
O  0.00000012 0.00000007 -1.60266074
O  0.00000009 0.00000005 1.43934160
3
MD Step 189 Units = [Angstroms]
C  -0.00000028 -0.00000015 0.21011102
O  0.00000012 0.00000006 -1.58298515
O  0.00000009 0.00000005 1.42525152
3
MD Step 190 Units = [Angstroms]
C  -0.00000028 -0.00000015 0.20231382
O  0.00000012 0.00000006 -1.56176782
O  0.00000009 0.00000005 1.40988767
3
MD Step 191 Units = [Angstroms]
C  -0.00000028 -0.00000015 0.19395428
O  0.00000012 0.00000006 -1.53894329
O  0.00000009 0.00000005 1.39333878
3
MD Step 192 Units = [Angstroms]
C  -0.00000028 -0.00000015 0.18480771
O  0.00000012 0.00000006 -1.51444397
O  0.00000009 0.00000005 1.37570592
3
MD Step 193 Units = [Angstroms]
C  -0.00000028 -0.00000015 0.17463388
O  0.00000011 0.00000006 -1.48820091
O  0.00000009 0.00000005 1.35710053
3
MD Step 194 Units = [Angstroms]
C  -0.00000028 -0.00000015 0.16318296
O  0.00000011 0.00000006 -1.46014541
O  0.00000010 0.00000005 1.33764141
3
MD Step 195 Units = [Angstroms]
C  -0.00000028 -0.00000015 0.15020537
O  0.00000011 0.00000006 -1.43021155
O  0.00000010 0.00000005 1.31745003
3
MD Step 196 Units = [Angstroms]
C  -0.00000028 -0.00000015 0.13546472
O  0.00000011 0.00000006 -1.39834067
O  0.00000010 0.00000005 1.29664519
3
MD Step 197 Units = [Angstroms]
C  -0.00000028 -0.00000015 0.11875651
O  0.00000011 0.00000006 -1.36448854
O  0.00000010 0.00000005 1.27533617
3
MD Step 198 Units = [Angstroms]
C  -0.00000027 -0.00000015 0.09993246
O  0.00000011 0.00000006 -1.32863710
O  0.00000010 0.00000005 1.25361624
3
MD Step 199 Units = [Angstroms]
C  -0.00000027 -0.00000015 0.07893351
O  0.00000010 0.00000006 -1.29081347
O  0.00000010 0.00000006 1.23155686
3
MD Step 200 Units = [Angstroms]
C  -0.00000027 -0.00000015 0.05583496
O  0.00000010 0.00000005 -1.25112073
O  0.00000010 0.00000006 1.20920455
3
MD Step 201 Units = [Angstroms]
C  -0.00000027 -0.00000015 0.03091140
O  0.00000010 0.00000005 -1.20978715
O  0.00000011 0.00000006 1.18658148
3
MD Step 202 Units = [Angstroms]
C  -0.00000027 -0.00000015 0.00473422
O  0.00000009 0.00000005 -1.16724505
O  0.00000011 0.00000006 1.16369099
3
MD Step 203 Units = [Angstroms]
C  -0.00000027 -0.00000015 -0.02168443
O  0.00000009 0.00000005 -1.12425083
O  0.00000011 0.00000006 1.14052967
3
MD Step 204 Units = [Angstroms]
C  -0.00000027 -0.00000015 -0.04669569
O  0.00000009 0.00000005 -1.08205084
O  0.00000011 0.00000006 1.11710603
3
MD Step 205 Units = [Angstroms]
C  -0.00000027 -0.00000015 -0.06781709
O  0.00000008 0.00000005 -1.04255585
O  0.00000012 0.00000006 1.09346720
3
MD Step 206 Units = [Angstroms]
C  -0.00000027 -0.00000015 -0.08172416
O  0.00000008 0.00000004 -1.00838274
O  0.00000012 0.00000006 1.06973435
3