3
MD Step 0 Units = [Angstroms / fs]
C  -0.00000000 -0.00000000 -0.00000000
O  0.00000000 0.00000000 -0.10000000
O  0.00000000 0.00000000 0.05000000
3
MD Step 1 Units = [Angstroms / fs]
C  -0.00000000 -0.00000000 -0.00041319
O  0.00000000 0.00000000 -0.09925733
O  0.00000000 0.00000000 0.04956752
3
MD Step 2 Units = [Angstroms / fs]
C  0.00000000 -0.00000000 -0.00143984
O  -0.00000000 0.00000000 -0.09726937
O  -0.00000000 0.00000000 0.04835028
3
MD Step 3 Units = [Angstroms / fs]
C  0.00000000 0.00000000 -0.00272602
O  -0.00000000 -0.00000000 -0.09444012
O  -0.00000000 -0.00000000 0.04648659
3
MD Step 4 Units = [Angstroms / fs]
C  -0.00000000 0.00000000 -0.00404540
O  0.00000000 -0.00000000 -0.09105811
O  0.00000000 -0.00000000 0.04409506
3
MD Step 5 Units = [Angstroms / fs]
C  -0.00000001 -0.00000000 -0.00526527
O  0.00000000 0.00000000 -0.08732459
O  0.00000000 0.00000000 0.04127732
3
MD Step 6 Units = [Angstroms / fs]
C  -0.00000001 -0.00000000 -0.00631523
O  0.00000000 0.00000000 -0.08337846
O  0.00000000 0.00000000 0.03811940
3
MD Step 7 Units = [Angstroms / fs]
C  -0.00000001 -0.00000000 -0.00716376
O  0.00000000 0.00000000 -0.07931506
O  0.00000000 0.00000000 0.03469301
3
MD Step 8 Units = [Angstroms / fs]
C  -0.00000001 -0.00000000 -0.00780236
O  0.00000000 0.00000000 -0.07519968
O  0.00000000 0.00000000 0.03105703
3
MD Step 9 Units = [Angstroms / fs]
C  -0.00000001 -0.00000000 -0.00823535
O  0.00000000 0.00000000 -0.07107684
O  0.00000000 0.00000000 0.02725925
3
MD Step 10 Units = [Angstroms / fs]
C  -0.00000001 -0.00000000 -0.00847346
O  0.00000000 0.00000000 -0.06697667
O  0.00000000 0.00000000 0.02333783
3
MD Step 11 Units = [Angstroms / fs]
C  -0.00000001 -0.00000000 -0.00853001
O  0.00000000 0.00000000 -0.06291926
O  0.00000000 0.00000000 0.01932287
3
MD Step 12 Units = [Angstroms / fs]
C  -0.00000001 -0.00000000 -0.00841874
O  0.00000000 0.00000000 -0.05891773
O  0.00000000 0.00000000 0.01523780
3
MD Step 13 Units = [Angstroms / fs]
C  -0.00000001 -0.00000000 -0.00815274
O  0.00000000 0.00000000 -0.05498021
O  0.00000000 0.00000000 0.01110060
3
MD Step 14 Units = [Angstroms / fs]
C  -0.00000001 -0.00000000 -0.00774398
O  0.00000000 0.00000000 -0.05111141
O  0.00000000 0.00000000 0.00692494
3
MD Step 15 Units = [Angstroms / fs]
C  -0.00000001 -0.00000000 -0.00720320
O  0.00000000 0.00000000 -0.04731362
O  0.00000000 0.00000000 0.00272117
3
MD Step 16 Units = [Angstroms / fs]
C  -0.00000001 -0.00000000 -0.00654014
O  0.00000000 0.00000000 -0.04358744
O  0.00000000 0.00000000 -0.00150277
3
MD Step 17 Units = [Angstroms / fs]
C  -0.00000001 -0.00000000 -0.00576397
O  0.00000000 0.00000000 -0.03993226
O  0.00000000 0.00000000 -0.00574064
3
MD Step 18 Units = [Angstroms / fs]
C  -0.00000001 -0.00000000 -0.00488374
O  0.00000000 0.00000000 -0.03634664
O  0.00000000 0.00000000 -0.00998706
3
MD Step 19 Units = [Angstroms / fs]
C  -0.00000001 -0.00000000 -0.00390899
O  0.00000000 0.00000000 -0.03282872
O  0.00000000 0.00000000 -0.01423674
3
MD Step 20 Units = [Angstroms / fs]
C  -0.00000001 -0.00000000 -0.00285056
O  0.00000000 0.00000000 -0.02937635
O  0.00000000 0.00000000 -0.01848369
3
MD Step 21 Units = [Angstroms / fs]
C  -0.00000001 -0.00000000 -0.00172160
O  0.00000000 0.00000000 -0.02598732
O  0.00000000 0.00000000 -0.02272025
3
MD Step 22 Units = [Angstroms / fs]
C  -0.00000001 -0.00000000 -0.00053882
O  0.00000000 0.00000000 -0.02265949
O  0.00000000 0.00000000 -0.02693601
3
MD Step 23 Units = [Angstroms / fs]
C  -0.00000001 -0.00000000 0.00067589
O  0.00000000 0.00000000 -0.01939090
O  0.00000000 0.00000000 -0.03111650
3
MD Step 24 Units = [Angstroms / fs]
C  -0.00000001 -0.00000000 0.00189339
O  0.00000000 0.00000000 -0.01617989
O  0.00000000 0.00000000 -0.03524151
3
MD Step 25 Units = [Angstroms / fs]
C  -0.00000001 -0.00000000 0.00307434
O  0.00000000 0.00000000 -0.01302505
O  0.00000000 0.00000000 -0.03928290
3
MD Step 26 Units = [Angstroms / fs]
C  -0.00000001 -0.00000000 0.00416583
O  0.00000000 0.00000000 -0.00992533
O  0.00000000 0.00000000 -0.04320203
3
MD Step 27 Units = [Angstroms / fs]
C  -0.00000001 -0.00000000 0.00509674
O  0.00000000 0.00000000 -0.00687987
O  0.00000000 0.00000000 -0.04694633
3
MD Step 28 Units = [Angstroms / fs]
C  -0.00000001 -0.00000000 0.00577203
O  0.00000000 0.00000000 -0.00388797
O  0.00000000 0.00000000 -0.05044518
3
MD Step 29 Units = [Angstroms / fs]
C  -0.00000001 -0.00000000 0.00606634
O  0.00000000 0.00000000 -0.00094875
O  0.00000000 0.00000000 -0.05360535
3
MD Step 30 Units = [Angstroms / fs]
C  -0.00000001 -0.00000000 0.00581752
O  0.00000000 0.00000000 0.00193925
O  0.00000000 0.00000000 -0.05630656
3
MD Step 31 Units = [Angstroms / fs]
C  -0.00000001 -0.00000000 0.00482185
O  0.00000000 0.00000000 0.00477885
O  0.00000000 0.00000000 -0.05839869
3
MD Step 32 Units = [Angstroms / fs]
C  -0.00000001 -0.00000000 0.00283503
O  0.00000000 0.00000000 0.00757521
O  0.00000000 0.00000000 -0.05970351
3
MD Step 33 Units = [Angstroms / fs]
C  -0.00000001 -0.00000000 -0.00041353
O  0.00000000 0.00000000 0.01033722
O  0.00000000 0.00000000 -0.06002678
3
MD Step 34 Units = [Angstroms / fs]
C  -0.00000001 -0.00000000 -0.00518652
O  0.00000000 0.00000000 0.01307893
O  0.00000000 0.00000000 -0.05918533
3
MD Step 35 Units = [Angstroms / fs]
C  -0.00000001 -0.00000000 -0.01167702
O  0.00000000 0.00000000 0.01582100
O  0.00000000 0.00000000 -0.05705487
3
MD Step 36 Units = [Angstroms / fs]
C  -0.00000001 -0.00000000 -0.01992406
O  0.00000000 0.00000000 0.01859172
O  0.00000000 0.00000000 -0.05363442
3
MD Step 37 Units = [Angstroms / fs]
C  -0.00000001 -0.00000000 -0.02973330
O  0.00000000 0.00000000 0.02142696
O  0.00000000 0.00000000 -0.04910571
3
MD Step 38 Units = [Angstroms / fs]
C  -0.00000001 -0.00000000 -0.04064594
O  0.00000000 0.00000000 0.02436884
O  0.00000001 0.00000000 -0.04385530
3
MD Step 39 Units = [Angstroms / fs]
C  -0.00000001 -0.00000000 -0.05199923
O  0.00000000 0.00000000 0.02746215
O  0.00000001 0.00000000 -0.03842551
3
MD Step 40 Units = [Angstroms / fs]
C  -0.00000001 -0.00000000 -0.06306815
O  -0.00000000 -0.00000000 0.03074681
O  0.00000001 0.00000000 -0.03340056
3
MD Step 41 Units = [Angstroms / fs]
C  -0.00000001 -0.00000000 -0.07322635
O  -0.00000000 -0.00000000 0.03424684
O  0.00000001 0.00000000 -0.02927467
3
MD Step 42 Units = [Angstroms / fs]
C  -0.00000001 -0.00000000 -0.08205150
O  -0.00000000 -0.00000000 0.03795758
O  0.00000001 0.00000000 -0.02636023
3
MD Step 43 Units = [Angstroms / fs]
C  -0.00000001 -0.00000000 -0.08933447
O  -0.00000000 -0.00000000 0.04183245
O  0.00000001 0.00000000 -0.02476766
3
MD Step 44 Units = [Angstroms / fs]
C  -0.00000001 -0.00000000 -0.09500912
O  -0.00000000 -0.00000000 0.04576682
O  0.00000001 0.00000000 -0.02444199
3
MD Step 45 Units = [Angstroms / fs]
C  -0.00000001 -0.00000000 -0.09903762
O  -0.00000000 -0.00000000 0.04957260
O  0.00000001 0.00000000 -0.02522351
3
MD Step 46 Units = [Angstroms / fs]
C  -0.00000001 -0.00000000 -0.10127498
O  -0.00000000 -0.00000000 0.05293303
O  0.00000001 0.00000000 -0.02690432
3
MD Step 47 Units = [Angstroms / fs]
C  -0.00000001 -0.00000000 -0.10131548
O  -0.00000000 -0.00000000 0.05532683
O  0.00000001 0.00000000 -0.02926772
3
MD Step 48 Units = [Angstroms / fs]
C  -0.00000001 -0.00000000 -0.09832126
O  -0.00000000 -0.00000000 0.05592038
O  0.00000001 0.00000000 -0.03210907
3
MD Step 49 Units = [Angstroms / fs]
C  -0.00000001 -0.00000000 -0.09087727
O  -0.00000000 -0.00000000 0.05346778
O  0.00000001 0.00000000 -0.03524479
3
MD Step 50 Units = [Angstroms / fs]
C  -0.00000001 -0.00000000 -0.07707372
O  -0.00000000 -0.00000000 0.04637773
O  0.00000001 0.00000000 -0.03851728
3
MD Step 51 Units = [Angstroms / fs]
C  -0.00000001 -0.00000000 -0.05523870
O  0.00000000 0.00000000 0.03327119
O  0.00000000 0.00000000 -0.04180264
3
MD Step 52 Units = [Angstroms / fs]
C  -0.00000001 -0.00000000 -0.02559818
O  0.00000000 0.00000000 0.01423479
O  0.00000000 0.00000000 -0.04501783
3
MD Step 53 Units = [Angstroms / fs]
C  -0.00000001 -0.00000000 0.00819654
O  0.00000001 0.00000000 -0.00804745
O  -0.00000000 -0.00000000 -0.04810582
3
MD Step 54 Units = [Angstroms / fs]
C  -0.00000001 -0.00000000 0.04000694
O  0.00000001 0.00000000 -0.02905787
O  -0.00000000 -0.00000000 -0.05097596
3
MD Step 55 Units = [Angstroms / fs]
C  -0.00000001 -0.00000000 0.06457147
O  0.00000001 0.00000001 -0.04507173
O  -0.00000001 -0.00000000 -0.05340309
3
MD Step 56 Units = [Angstroms / fs]
C  -0.00000001 -0.00000000 0.07972726
O  0.00000001 0.00000001 -0.05493795
O  -0.00000001 -0.00000000 -0.05491455
3
MD Step 57 Units = [Angstroms / fs]
C  -0.00000001 -0.00000000 0.08561821
O  0.00000001 0.00000001 -0.05958238
O  -0.00000001 -0.00000000 -0.05469255
3
MD Step 58 Units = [Angstroms / fs]
C  -0.00000001 -0.00000000 0.08278665
O  0.00000001 0.00000001 -0.06062334
O  -0.00000001 -0.00000000 -0.05152589
3
MD Step 59 Units = [Angstroms / fs]
C  -0.00000001 -0.00000000 0.07118192
O  0.00000001 0.00000001 -0.05949436
O  -0.00000001 -0.00000000 -0.04394302
3
MD Step 60 Units = [Angstroms / fs]
C  -0.00000001 -0.00000000 0.05061001
O  0.00000001 0.00000000 -0.05719322
O  -0.00000000 -0.00000000 -0.03080051
3
MD Step 61 Units = [Angstroms / fs]
C  -0.00000001 -0.00000000 0.02229454
O  0.00000001 0.00000000 -0.05431696
O  -0.00000000 -0.00000000 -0.01241991
3
MD Step 62 Units = [Angstroms / fs]
C  -0.00000000 -0.00000000 -0.00983928
O  0.00000000 0.00000000 -0.05116655
O  0.00000000 0.00000000 0.00855305
3
MD Step 63 Units = [Angstroms / fs]
C  -0.00000000 -0.00000000 -0.04014984
O  -0.00000000 -0.00000000 -0.04786150
O  0.00000000 0.00000000 0.02800261
3
MD Step 64 Units = [Angstroms / fs]
C  -0.00000000 -0.00000000 -0.06421562
O  -0.00000000 -0.00000000 -0.04444622
O  0.00000001 0.00000000 0.04265389
3
MD Step 65 Units = [Angstroms / fs]
C  -0.00000000 -0.00000000 -0.08067101
O  -0.00000001 -0.00000000 -0.04096354
O  0.00000001 0.00000000 0.05152453
3
MD Step 66 Units = [Angstroms / fs]
C  -0.00000000 -0.00000000 -0.09053080
O  -0.00000001 -0.00000000 -0.03748473
O  0.00000001 0.00000000 0.05544762
3
MD Step 67 Units = [Angstroms / fs]
C  -0.00000000 -0.00000000 -0.09559279
O  -0.00000001 -0.00000000 -0.03410941
O  0.00000001 0.00000001 0.05587242
3
MD Step 68 Units = [Angstroms / fs]
C  -0.00000000 -0.00000000 -0.09743156
O  -0.00000001 -0.00000000 -0.03095790
O  0.00000001 0.00000001 0.05410129
3
MD Step 69 Units = [Angstroms / fs]
C  -0.00000000 -0.00000000 -0.09711245
O  -0.00000001 -0.00000000 -0.02816720
O  0.00000001 0.00000001 0.05107104
3
MD Step 70 Units = [Angstroms / fs]
C  -0.00000000 -0.00000000 -0.09524440
O  -0.00000001 -0.00000000 -0.02589063
O  0.00000001 0.00000000 0.04739209
3
MD Step 71 Units = [Angstroms / fs]
C  -0.00000000 -0.00000000 -0.09211342
O  -0.00000001 -0.00000000 -0.02429562
O  0.00000001 0.00000000 0.04344661
3
MD Step 72 Units = [Angstroms / fs]
C  -0.00000000 -0.00000000 -0.08780295
O  -0.00000001 -0.00000000 -0.02355548
O  0.00000001 0.00000000 0.03947053
3
MD Step 73 Units = [Angstroms / fs]
C  -0.00000000 -0.00000000 -0.08229122
O  -0.00000001 -0.00000000 -0.02383041
O  0.00000001 0.00000000 0.03560772
3
MD Step 74 Units = [Angstroms / fs]
C  -0.00000000 -0.00000000 -0.07553635
O  -0.00000000 -0.00000000 -0.02523517
O  0.00000001 0.00000000 0.03194149
3
MD Step 75 Units = [Angstroms / fs]
C  -0.00000000 -0.00000000 -0.06755759
O  -0.00000000 -0.00000000 -0.02779516
O  0.00000001 0.00000000 0.02851170
3
MD Step 76 Units = [Angstroms / fs]
C  -0.00000000 -0.00000000 -0.05850744
O  -0.00000000 -0.00000000 -0.03140213
O  0.00000001 0.00000000 0.02532458
3
MD Step 77 Units = [Angstroms / fs]
C  -0.00000000 -0.00000000 -0.04871629
O  -0.00000000 -0.00000000 -0.03578846
O  0.00000000 0.00000000 0.02236053
3
MD Step 78 Units = [Angstroms / fs]
C  -0.00000000 -0.00000000 -0.03868365
O  -0.00000000 -0.00000000 -0.04054298
O  0.00000000 0.00000000 0.01958340
3
MD Step 79 Units = [Angstroms / fs]
C  -0.00000000 -0.00000000 -0.02900046
O  -0.00000000 -0.00000000 -0.04517906
O  0.00000000 0.00000000 0.01695016
3
MD Step 80 Units = [Angstroms / fs]
C  -0.00000000 -0.00000000 -0.02022471
O  -0.00000000 -0.00000000 -0.04923490
O  0.00000000 0.00000000 0.01441790
3
MD Step 81 Units = [Angstroms / fs]
C  -0.00000000 -0.00000000 -0.01276586
O  0.00000000 0.00000000 -0.05236429
O  0.00000000 0.00000000 0.01194783
3
MD Step 82 Units = [Angstroms / fs]
C  -0.00000000 -0.00000000 -0.00682601
O  0.00000000 0.00000000 -0.05438264
O  0.00000000 0.00000000 0.00950703
3
MD Step 83 Units = [Angstroms / fs]
C  -0.00000000 -0.00000000 -0.00241140
O  0.00000000 0.00000000 -0.05525886
O  0.00000000 0.00000000 0.00706914
3
MD Step 84 Units = [Angstroms / fs]
C  -0.00000000 -0.00000000 0.00061140
O  0.00000000 0.00000000 -0.05507312
O  -0.00000000 -0.00000000 0.00461414
3
MD Step 85 Units = [Angstroms / fs]
C  -0.00000000 -0.00000000 0.00245009
O  0.00000000 0.00000000 -0.05396720
O  -0.00000000 -0.00000000 0.00212788
3
MD Step 86 Units = [Angstroms / fs]
C  -0.00000000 -0.00000000 0.00333297
O  0.00000000 0.00000000 -0.05210318
O  -0.00000000 -0.00000000 -0.00039893
3
MD Step 87 Units = [Angstroms / fs]
C  -0.00000000 -0.00000000 0.00347498
O  0.00000000 0.00000000 -0.04963675
O  -0.00000000 -0.00000000 -0.00297197
3
MD Step 88 Units = [Angstroms / fs]
C  -0.00000000 -0.00000000 0.00306163
O  0.00000000 0.00000000 -0.04670409
O  -0.00000000 -0.00000000 -0.00559432
3
MD Step 89 Units = [Angstroms / fs]
C  -0.00000000 -0.00000000 0.00224500
O  0.00000000 0.00000000 -0.04341802
O  -0.00000000 -0.00000000 -0.00826734
3
MD Step 90 Units = [Angstroms / fs]
C  -0.00000000 -0.00000000 0.00114543
O  0.00000000 0.00000000 -0.03986839
O  -0.00000000 -0.00000000 -0.01099151
3
MD Step 91 Units = [Angstroms / fs]
C  -0.00000000 -0.00000000 -0.00014390
O  0.00000000 0.00000000 -0.03612505
O  -0.00000000 -0.00000000 -0.01376692
3
MD Step 92 Units = [Angstroms / fs]
C  -0.00000000 -0.00000000 -0.00155161
O  0.00000000 0.00000000 -0.03224162
O  -0.00000000 -0.00000000 -0.01659356
3
MD Step 93 Units = [Angstroms / fs]
C  -0.00000000 -0.00000000 -0.00302329
O  0.00000000 0.00000000 -0.02825882
O  -0.00000000 -0.00000000 -0.01947155
3
MD Step 94 Units = [Angstroms / fs]
C  -0.00000000 -0.00000000 -0.00451742
O  0.00000000 0.00000000 -0.02420747
O  -0.00000000 -0.00000000 -0.02240123
3
MD Step 95 Units = [Angstroms / fs]
C  -0.00000000 -0.00000000 -0.00600183
O  0.00000000 0.00000000 -0.02011112
O  -0.00000000 -0.00000000 -0.02538322
3
MD Step 96 Units = [Angstroms / fs]
C  -0.00000000 -0.00000000 -0.00745076
O  0.00000000 0.00000000 -0.01598815
O  -0.00000000 -0.00000000 -0.02841845
3
MD Step 97 Units = [Angstroms / fs]
C  -0.00000000 -0.00000000 -0.00884264
O  0.00000000 0.00000000 -0.01185354
O  -0.00000000 -0.00000000 -0.03150815
3
MD Step 98 Units = [Angstroms / fs]
C  -0.00000000 -0.00000000 -0.01015816
O  0.00000000 0.00000000 -0.00772028
O  -0.00000000 -0.00000000 -0.03465383
3
MD Step 99 Units = [Angstroms / fs]
C  -0.00000000 -0.00000000 -0.01137849
O  0.00000000 0.00000000 -0.00360075
O  -0.00000000 -0.00000000 -0.03785724
3
MD Step 100 Units = [Angstroms / fs]
C  -0.00000000 -0.00000000 -0.01248378
O  0.00000000 0.00000000 0.00049211
O  -0.00000000 -0.00000000 -0.04112035
3
MD Step 101 Units = [Angstroms / fs]
C  -0.00000000 -0.00000000 -0.01345152
O  0.00000000 0.00000000 0.00454360
O  -0.00000000 -0.00000000 -0.04444534
3
MD Step 102 Units = [Angstroms / fs]
C  -0.00000000 -0.00000000 -0.01425512
O  0.00000000 0.00000000 0.00853612
O  -0.00000000 -0.00000000 -0.04783458
3
MD Step 103 Units = [Angstroms / fs]
C  -0.00000000 -0.00000000 -0.01486245
O  0.00000000 0.00000000 0.01244792
O  -0.00000000 -0.00000000 -0.05129045
3
MD Step 104 Units = [Angstroms / fs]
C  -0.00000000 -0.00000000 -0.01523427
O  0.00000000 0.00000000 0.01625178
O  -0.00000000 -0.00000000 -0.05481517
3
MD Step 105 Units = [Angstroms / fs]
C  -0.00000000 -0.00000000 -0.01532276
O  0.00000000 0.00000000 0.01991379
O  -0.00000000 -0.00000000 -0.05841075
3
MD Step 106 Units = [Angstroms / fs]
C  -0.00000000 -0.00000000 -0.01507017
O  0.00000000 0.00000000 0.02339192
O  -0.00000000 -0.00000000 -0.06207850
3
MD Step 107 Units = [Angstroms / fs]
C  -0.00000000 -0.00000000 -0.01440795
O  0.00000000 0.00000000 0.02663502
O  -0.00000000 -0.00000000 -0.06581874
3
MD Step 108 Units = [Angstroms / fs]
C  -0.00000000 -0.00000000 -0.01325724
O  0.00000000 0.00000000 0.02958260
O  -0.00000000 -0.00000000 -0.06963018
3
MD Step 109 Units = [Angstroms / fs]
C  -0.00000000 -0.00000000 -0.01153096
O  0.00000000 0.00000000 0.03216529
O  -0.00000000 -0.00000000 -0.07350882
3
MD Step 110 Units = [Angstroms / fs]
C  -0.00000000 -0.00000000 -0.00913947
O  0.00000000 0.00000000 0.03430738
O  -0.00000000 -0.00000000 -0.07744624
3
MD Step 111 Units = [Angstroms / fs]
C  -0.00000000 -0.00000000 -0.00600173
O  0.00000000 0.00000000 0.03593246
O  -0.00000000 -0.00000000 -0.08142686
3
MD Step 112 Units = [Angstroms / fs]
C  -0.00000000 -0.00000000 -0.00206244
O  0.00000000 0.00000000 0.03697150
O  -0.00000000 -0.00000000 -0.08542319
3
MD Step 113 Units = [Angstroms / fs]
C  -0.00000000 -0.00000000 0.00268199
O  0.00000000 0.00000000 0.03737461
O  -0.00000000 -0.00000000 -0.08938802
3
MD Step 114 Units = [Angstroms / fs]
C  -0.00000000 -0.00000000 0.00814709
O  0.00000000 0.00000000 0.03712539
O  -0.00000000 -0.00000000 -0.09324153
3
MD Step 115 Units = [Angstroms / fs]
C  -0.00000000 -0.00000000 0.01411574
O  0.00000001 0.00000000 0.03625306
O  -0.00000000 -0.00000000 -0.09684997
3
MD Step 116 Units = [Angstroms / fs]
C  -0.00000000 -0.00000000 0.02018631
O  0.00000001 0.00000000 0.03483652
O  -0.00000001 -0.00000000 -0.09999070
3
MD Step 117 Units = [Angstroms / fs]
C  -0.00000000 -0.00000000 0.02570916
O  0.00000001 0.00000000 0.03299671
O  -0.00000001 -0.00000000 -0.10229697
3
MD Step 118 Units = [Angstroms / fs]
C  -0.00000000 -0.00000000 0.02971059
O  0.00000001 0.00000000 0.03087276
O  -0.00000001 -0.00000000 -0.10317696
3
MD Step 119 Units = [Angstroms / fs]
C  -0.00000000 -0.00000000 0.03081689
O  0.00000001 0.00000000 0.02858238
O  -0.00000001 -0.00000000 -0.10171710
3
MD Step 120 Units = [Angstroms / fs]
C  -0.00000000 -0.00000000 0.02725211
O  0.00000001 0.00000000 0.02617690
O  -0.00000001 -0.00000000 -0.09663548
3
MD Step 121 Units = [Angstroms / fs]
C  -0.00000000 -0.00000000 0.01714404
O  0.00000001 0.00000000 0.02359901
O  -0.00000000 -0.00000000 -0.08646931
3
MD Step 122 Units = [Angstroms / fs]
C  -0.00000000 -0.00000000 -0.00049416
O  0.00000000 0.00000000 0.02064761
O  -0.00000000 -0.00000000 -0.07027663
3
MD Step 123 Units = [Angstroms / fs]
C  -0.00000000 -0.00000000 -0.02416581
O  -0.00000000 -0.00000000 0.01694909
O  0.00000000 0.00000000 -0.04880744
3
MD Step 124 Units = [Angstroms / fs]
C  -0.00000000 -0.00000000 -0.04903906
O  -0.00000000 -0.00000000 0.01192354
O  0.00000001 0.00000000 -0.02510915
3
MD Step 125 Units = [Angstroms / fs]
C  -0.00000000 -0.00000000 -0.06856443
O  -0.00000001 -0.00000000 0.00476685
O  0.00000001 0.00000000 -0.00329447
3
MD Step 126 Units = [Angstroms / fs]
C  -0.00000000 -0.00000000 -0.07766557
O  -0.00000001 -0.00000001 -0.00543868
O  0.00000001 0.00000001 0.01374344
3
MD Step 127 Units = [Angstroms / fs]
C  -0.00000000 -0.00000000 -0.07467154
O  -0.00000001 -0.00000000 -0.01932123
O  0.00000001 0.00000001 0.02537832
3
MD Step 128 Units = [Angstroms / fs]
C  -0.00000000 -0.00000000 -0.06126731
O  -0.00000001 -0.00000000 -0.03653511
O  0.00000001 0.00000000 0.03252944
3
MD Step 129 Units = [Angstroms / fs]
C  -0.00000000 -0.00000000 -0.04158478
O  -0.00000000 -0.00000000 -0.05529964
O  0.00000000 0.00000000 0.03651798
3
MD Step 130 Units = [Angstroms / fs]
C  -0.00000000 -0.00000000 -0.02073109
O  -0.00000000 -0.00000000 -0.07287873
O  0.00000000 0.00000000 0.03844189
3
MD Step 131 Units = [Angstroms / fs]
C  -0.00000000 -0.00000000 -0.00287412
O  0.00000000 0.00000000 -0.08688929
O  -0.00000000 -0.00000000 0.03904694
3
MD Step 132 Units = [Angstroms / fs]
C  0.00000000 0.00000000 0.00999299
O  0.00000000 0.00000000 -0.09630316
O  -0.00000000 -0.00000000 0.03880126
3
MD Step 133 Units = [Angstroms / fs]
C  0.00000000 0.00000000 0.01786746
O  0.00000000 0.00000000 -0.10140506
O  -0.00000000 -0.00000000 0.03799168
3
MD Step 134 Units = [Angstroms / fs]
C  0.00000000 0.00000000 0.02176855
O  0.00000000 0.00000000 -0.10313484
O  -0.00000000 -0.00000000 0.03679285
3
MD Step 135 Units = [Angstroms / fs]
C  0.00000000 0.00000000 0.02291033
O  0.00000000 0.00000000 -0.10250859
O  -0.00000000 -0.00000000 0.03530944
3
MD Step 136 Units = [Angstroms / fs]
C  0.00000000 0.00000000 0.02231283
O  0.00000000 0.00000000 -0.10035311
O  -0.00000000 -0.00000000 0.03360252
3
MD Step 137 Units = [Angstroms / fs]
C  0.00000000 0.00000000 0.02071772
O  0.00000000 0.00000000 -0.09725991
O  -0.00000000 -0.00000000 0.03170679
3
MD Step 138 Units = [Angstroms / fs]
C  0.00000000 0.00000000 0.01862725
O  0.00000000 0.00000000 -0.09362583
O  -0.00000000 -0.00000000 0.02964206
3
MD Step 139 Units = [Angstroms / fs]
C  0.00000000 0.00000000 0.01636878
O  0.00000000 0.00000000 -0.08970909
O  -0.00000000 -0.00000000 0.02742079
3
MD Step 140 Units = [Angstroms / fs]
C  0.00000000 0.00000000 0.01415031
O  0.00000000 0.00000000 -0.08567541
O  -0.00000000 -0.00000000 0.02505255
3
MD Step 141 Units = [Angstroms / fs]
C  0.00000000 0.00000000 0.01210000
O  0.00000000 0.00000000 -0.08163035
O  -0.00000000 -0.00000000 0.02254669
3
MD Step 142 Units = [Angstroms / fs]
C  0.00000000 0.00000000 0.01029269
O  0.00000000 0.00000000 -0.07764073
O  -0.00000000 -0.00000000 0.01991385
3
MD Step 143 Units = [Angstroms / fs]
C  0.00000000 0.00000000 0.00876773
O  0.00000000 0.00000000 -0.07374840
O  -0.00000000 -0.00000000 0.01716632
3
MD Step 144 Units = [Angstroms / fs]
C  0.00000000 0.00000000 0.00754090
O  0.00000000 0.00000000 -0.06997912
O  -0.00000000 -0.00000000 0.01431805
3
MD Step 145 Units = [Angstroms / fs]
C  0.00000000 0.00000000 0.00661203
O  0.00000000 0.00000000 -0.06634831
O  -0.00000000 -0.00000000 0.01138456
3
MD Step 146 Units = [Angstroms / fs]
C  0.00000000 0.00000000 0.00597013
O  0.00000000 0.00000000 -0.06286457
O  -0.00000000 -0.00000000 0.00838270
3
MD Step 147 Units = [Angstroms / fs]
C  0.00000000 0.00000000 0.00559638
O  0.00000000 0.00000000 -0.05953197
O  -0.00000000 -0.00000000 0.00533068
3
MD Step 148 Units = [Angstroms / fs]
C  0.00000000 0.00000000 0.00546633
O  0.00000000 0.00000000 -0.05635168
O  -0.00000000 -0.00000000 0.00224802
3
MD Step 149 Units = [Angstroms / fs]
C  0.00000000 0.00000000 0.00555130
O  0.00000000 0.00000000 -0.05332341
O  -0.00000000 -0.00000000 -0.00084404
3
MD Step 150 Units = [Angstroms / fs]
C  0.00000000 0.00000000 0.00581882
O  0.00000000 0.00000000 -0.05044624
O  -0.00000000 -0.00000000 -0.00392204
3
MD Step 151 Units = [Angstroms / fs]
C  0.00000000 0.00000000 0.00623224
O  0.00000000 0.00000000 -0.04771881
O  -0.00000000 -0.00000000 -0.00695983
3
MD Step 152 Units = [Angstroms / fs]
C  0.00000000 0.00000000 0.00674969
O  0.00000000 0.00000000 -0.04513934
O  -0.00000000 -0.00000000 -0.00992775
3
MD Step 153 Units = [Angstroms / fs]
C  0.00000000 0.00000000 0.00732239
O  0.00000000 0.00000000 -0.04270563
O  -0.00000000 -0.00000000 -0.01279141
3
MD Step 154 Units = [Angstroms / fs]
C  0.00000000 0.00000000 0.00789328
O  0.00000000 0.00000000 -0.04041491
O  -0.00000000 -0.00000000 -0.01551069
3
MD Step 155 Units = [Angstroms / fs]
C  0.00000000 0.00000000 0.00839532
O  0.00000000 0.00000000 -0.03826368
O  -0.00000000 -0.00000000 -0.01803881
3
MD Step 156 Units = [Angstroms / fs]
C  0.00000000 0.00000000 0.00874952
O  0.00000000 0.00000000 -0.03624724
O  -0.00000000 -0.00000000 -0.02032116
3
MD Step 157 Units = [Angstroms / fs]
C  0.00000000 0.00000000 0.00886405
O  0.00000000 0.00000000 -0.03435936
O  -0.00000000 -0.00000000 -0.02229502
3
MD Step 158 Units = [Angstroms / fs]
C  0.00000000 0.00000000 0.00863499
O  0.00000000 0.00000000 -0.03259200
O  -0.00000000 -0.00000000 -0.02389042
3
MD Step 159 Units = [Angstroms / fs]
C  0.00000000 0.00000000 0.00795039
O  0.00000000 0.00000000 -0.03093503
O  -0.00000000 -0.00000000 -0.02503345
3
MD Step 160 Units = [Angstroms / fs]
C  0.00000000 0.00000000 0.00669775
O  0.00000000 0.00000000 -0.02937642
O  -0.00000000 -0.00000000 -0.02565168
3
MD Step 161 Units = [Angstroms / fs]
C  0.00000000 0.00000000 0.00477703
O  0.00000000 0.00000000 -0.02790273
O  -0.00000000 -0.00000000 -0.02568346
3
MD Step 162 Units = [Angstroms / fs]
C  0.00000000 0.00000000 0.00211970
O  0.00000000 0.00000000 -0.02649976
O  -0.00000000 -0.00000000 -0.02509153
3
MD Step 163 Units = [Angstroms / fs]
C  0.00000000 0.00000000 -0.00128962
O  0.00000000 0.00000000 -0.02515339
O  -0.00000000 -0.00000000 -0.02387847
3
MD Step 164 Units = [Angstroms / fs]
C  0.00000000 0.00000000 -0.00539367
O  0.00000000 0.00000000 -0.02385021
O  -0.00000000 -0.00000000 -0.02210068
3
MD Step 165 Units = [Angstroms / fs]
C  0.00000000 0.00000000 -0.01005387
O  0.00000000 0.00000000 -0.02257797
O  -0.00000000 -0.00000000 -0.01987443
3
MD Step 166 Units = [Angstroms / fs]
C  0.00000000 0.00000000 -0.01505633
O  0.00000000 0.00000000 -0.02132554
O  -0.00000000 -0.00000000 -0.01737143
3
MD Step 167 Units = [Angstroms / fs]
C  0.00000000 0.00000000 -0.02013484
O  -0.00000000 -0.00000000 -0.02008263
O  -0.00000000 -0.00000000 -0.01480183
3
MD Step 168 Units = [Angstroms / fs]
C  0.00000000 0.00000000 -0.02500965
O  -0.00000000 -0.00000000 -0.01883940
O  0.00000000 0.00000000 -0.01238547
3
MD Step 169 Units = [Angstroms / fs]
C  0.00000000 0.00000000 -0.02943020
O  -0.00000000 -0.00000000 -0.01758609
O  0.00000000 0.00000000 -0.01032020
3
MD Step 170 Units = [Angstroms / fs]
C  0.00000000 0.00000000 -0.03320840
O  -0.00000000 -0.00000000 -0.01631267
O  0.00000000 0.00000000 -0.00875726
3
MD Step 171 Units = [Angstroms / fs]
C  0.00000000 0.00000000 -0.03623533
O  -0.00000000 -0.00000000 -0.01500864
O  0.00000000 0.00000000 -0.00778892
3
MD Step 172 Units = [Angstroms / fs]
C  0.00000000 0.00000000 -0.03848074
O  -0.00000000 -0.00000000 -0.01366308
O  0.00000000 0.00000000 -0.00744882
3
MD Step 173 Units = [Angstroms / fs]
C  0.00000000 0.00000000 -0.03997873
O  -0.00000000 -0.00000000 -0.01226491
O  0.00000000 0.00000000 -0.00772243
3
MD Step 174 Units = [Angstroms / fs]
C  0.00000000 0.00000000 -0.04080790
O  -0.00000000 -0.00000000 -0.01080336
O  0.00000000 0.00000000 -0.00856151
3
MD Step 175 Units = [Angstroms / fs]
C  0.00000000 0.00000000 -0.04107142
O  -0.00000000 -0.00000000 -0.00926846
O  0.00000000 0.00000000 -0.00989858
3
MD Step 176 Units = [Angstroms / fs]
C  0.00000000 0.00000000 -0.04088044
O  -0.00000000 -0.00000000 -0.00765153
O  0.00000000 0.00000000 -0.01165889
3
MD Step 177 Units = [Angstroms / fs]
C  0.00000000 0.00000000 -0.04034324
O  -0.00000000 -0.00000000 -0.00594544
O  0.00000000 0.00000000 -0.01376825
3
MD Step 178 Units = [Angstroms / fs]
C  0.00000000 0.00000000 -0.03955880
O  -0.00000000 -0.00000000 -0.00414467
O  0.00000000 0.00000000 -0.01615792
3
MD Step 179 Units = [Angstroms / fs]
C  0.00000000 0.00000000 -0.03861441
O  -0.00000000 -0.00000000 -0.00224499
O  0.00000000 0.00000000 -0.01876657
3
MD Step 180 Units = [Angstroms / fs]
C  0.00000000 0.00000000 -0.03758575
O  -0.00000000 -0.00000000 -0.00024327
O  0.00000000 0.00000000 -0.02154052
3
MD Step 181 Units = [Angstroms / fs]
C  0.00000000 0.00000000 -0.03653824
O  -0.00000000 -0.00000000 0.00186284
O  0.00000000 0.00000000 -0.02443301
3
MD Step 182 Units = [Angstroms / fs]
C  0.00000000 0.00000000 -0.03552883
O  -0.00000000 -0.00000000 0.00407527
O  0.00000000 0.00000000 -0.02740322
3
MD Step 183 Units = [Angstroms / fs]
C  0.00000000 0.00000000 -0.03460803
O  -0.00000000 -0.00000000 0.00639582
O  0.00000000 0.00000000 -0.03041503
3
MD Step 184 Units = [Angstroms / fs]
C  0.00000000 0.00000000 -0.03382210
O  -0.00000000 -0.00000000 0.00882630
O  0.00000000 0.00000000 -0.03343552
3
MD Step 185 Units = [Angstroms / fs]
C  0.00000000 0.00000000 -0.03321457
O  -0.00000000 -0.00000000 0.01136882
O  0.00000000 0.00000000 -0.03643412
3
MD Step 186 Units = [Angstroms / fs]
C  0.00000000 0.00000000 -0.03282772
O  -0.00000000 -0.00000000 0.01402585
O  0.00000000 0.00000000 -0.03938157
3
MD Step 187 Units = [Angstroms / fs]
C  0.00000000 0.00000000 -0.03270381
O  -0.00000000 -0.00000000 0.01680034
O  0.00000000 0.00000000 -0.04224907
3
MD Step 188 Units = [Angstroms / fs]
C  0.00000000 0.00000000 -0.03288524
O  -0.00000000 -0.00000000 0.01969572
O  0.00000000 0.00000000 -0.04500825
3
MD Step 189 Units = [Angstroms / fs]
C  0.00000000 0.00000000 -0.03341454
O  -0.00000000 -0.00000000 0.02271583
O  0.00000000 0.00000000 -0.04763101
3
MD Step 190 Units = [Angstroms / fs]
C  0.00000000 0.00000000 -0.03433383
O  -0.00000000 -0.00000000 0.02586477
O  0.00000000 0.00000000 -0.05008983
3
MD Step 191 Units = [Angstroms / fs]
C  0.00000000 0.00000000 -0.03568319
O  -0.00000000 -0.00000000 0.02914676
O  0.00000000 0.00000000 -0.05235883
3
MD Step 192 Units = [Angstroms / fs]
C  0.00000000 0.00000000 -0.03749748
O  -0.00000000 -0.00000000 0.03256528
O  0.00000000 0.00000000 -0.05441534
3
MD Step 193 Units = [Angstroms / fs]
C  0.00000000 0.00000000 -0.03980184
O  -0.00000000 -0.00000000 0.03612147
O  0.00000000 0.00000000 -0.05624161
3
MD Step 194 Units = [Angstroms / fs]
C  0.00000000 0.00000000 -0.04260560
O  -0.00000000 -0.00000000 0.03981228
O  0.00000000 0.00000000 -0.05782759
3
MD Step 195 Units = [Angstroms / fs]
C  0.00000000 0.00000000 -0.04589533
O  -0.00000000 -0.00000000 0.04362765
O  0.00000000 0.00000000 -0.05917331
3
MD Step 196 Units = [Angstroms / fs]
C  0.00000000 0.00000000 -0.04962594
O  -0.00000000 -0.00000000 0.04754592
O  0.00000000 0.00000000 -0.06029095
3
MD Step 197 Units = [Angstroms / fs]
C  0.00000000 0.00000000 -0.05370935
O  -0.00000000 -0.00000000 0.05152649
O  0.00000000 0.00000000 -0.06120604
3